unknown system                          
            1
    28.000000    0.000000    0.000000
     0.000000   28.000000    0.000000
     0.000000    0.000000   29.240000
   O    
   2   
Direct configuration=     1
   0.50000000  0.50000000  0.47879617
   0.50000000  0.50000000  0.52120383
Direct configuration=     2
   0.50000000  0.50000000  0.47900534
   0.50000000  0.50000000  0.52099466
Direct configuration=     3
   0.50000000  0.50000000  0.47887212
   0.50000000  0.50000000  0.52112788