    2    2 1000    2
  0.1156400E+05  0.2800000E-08  0.2800000E-08  0.2950000E-08  0.2000000E-15
   1.0000000000000000E-004
  CAR 
 unknown system                          
   12    1   11

  0.1262379E-14  0.1262379E-14  0.1262379E-14  0.1000000E+01
   1      -32.618057    -31.338927
   2      -20.784094    -18.998259
   3      -13.619752    -12.578174
   4      -13.398943    -11.591678
   5      -13.398943    -11.591678
   6       -7.109360     -4.907592
   7       -7.109360     -4.907592
   8       -0.167310     -0.056709
   9        0.011445      0.054121
  10        0.138811      0.170465
  11        0.180390      0.195278
