<?xml version="1.0" encoding="ISO-8859-1"?>
<modeling>
 <generator>
  <i name="program" type="string">vasp </i>
  <i name="version" type="string">5.3.2  </i>
  <i name="subversion" type="string">13Sep12 (build Mar 13 2013 15:03:29) complex                          parallel </i>
  <i name="platform" type="string">LinuxPgi </i>
  <i name="date" type="string">2016 05 04 </i>
  <i name="time" type="string">14:16:20 </i>
 </generator>
 <incar>
  <i type="int" name="ISTART">     0</i>
  <i type="string" name="PREC">normal</i>
  <i type="string" name="ALGO"> Fast</i>
  <i type="int" name="ISPIN">     2</i>
  <i type="int" name="NELM">   400</i>
  <i type="int" name="NELMDL">   -10</i>
  <i type="int" name="IBRION">     1</i>
  <i type="int" name="NFREE">     2</i>
  <i name="EDIFF">      0.00000100</i>
  <i name="EDIFFG">     -0.04000000</i>
  <i type="int" name="NSW">  1000</i>
  <i type="int" name="ISIF">     2</i>
  <i name="ENCUT">    400.00000000</i>
  <i name="POTIM">      0.20000000</i>
  <i type="string" name="LREAL"> Auto</i>
  <i type="int" name="ISMEAR">     1</i>
  <i name="SIGMA">      0.01000000</i>
  <i type="int" name="NWRITE">     1</i>
  <i type="logical" name="LWAVE"> F  </i>
  <i type="logical" name="LCHARG"> F  </i>
  <i type="logical" name="LVTOT"> F  </i>
  <i type="int" name="NELM">   400</i>
  <i type="int" name="VOSKOWN">     1</i>
 </incar>
 <kpoints>
  <generation param="Monkhorst-Pack">
   <v type="int" name="divisions">       1        1        1 </v>
   <v name="usershift">      0.00000000       0.00000000       0.00000000 </v>
   <v name="genvec1">      1.00000000       0.00000000       0.00000000 </v>
   <v name="genvec2">      0.00000000       1.00000000       0.00000000 </v>
   <v name="genvec3">      0.00000000       0.00000000       1.00000000 </v>
   <v name="shift">      0.00000000       0.00000000       0.00000000 </v>
  </generation>
  <varray name="kpointlist" >
   <v>       0.00000000       0.00000000       0.00000000 </v>
  </varray>
  <varray name="weights" >
   <v>       1.00000000 </v>
  </varray>
 </kpoints>
 <parameters>
  <separator name="general" >
   <i type="string" name="SYSTEM">unknown system</i>
   <i type="logical" name="LCOMPAT"> F  </i>
  </separator>
  <separator name="electronic" >
   <i type="string" name="PREC">normal</i>
   <i name="ENMAX">    400.00000000</i>
   <i name="ENAUG">    605.39200000</i>
   <i name="EDIFF">      0.00000100</i>
   <i type="int" name="IALGO">    68</i>
   <i type="int" name="IWAVPR">    11</i>
   <i type="int" name="NBANDS">    11</i>
   <i name="NELECT">     12.00000000</i>
   <i type="int" name="TURBO">     0</i>
   <i type="int" name="IRESTART">     0</i>
   <i type="int" name="NREBOOT">     0</i>
   <i type="int" name="NMIN">     0</i>
   <i name="EREF">      0.00000000</i>
   <separator name="electronic smearing" >
    <i type="int" name="ISMEAR">     1</i>
    <i name="SIGMA">      0.01000000</i>
    <i name="KSPACING">      0.50000000</i>
    <i type="logical" name="KGAMMA"> T  </i>
   </separator>
   <separator name="electronic projectors" >
    <i type="logical" name="LREAL"> T  </i>
    <v name="ROPT">     -0.00050000</v>
    <i type="int" name="LMAXPAW">  -100</i>
    <i type="int" name="LMAXMIX">     2</i>
    <i type="logical" name="NLSPLINE"> F  </i>
   </separator>
   <separator name="electronic startup" >
    <i type="int" name="ISTART">     0</i>
    <i type="int" name="ICHARG">     2</i>
    <i type="int" name="INIWAV">     1</i>
   </separator>
   <separator name="electronic spin" >
    <i type="int" name="ISPIN">     2</i>
    <i type="logical" name="LNONCOLLINEAR"> F  </i>
    <v name="MAGMOM">      1.00000000      1.00000000</v>
    <i name="NUPDOWN">     -1.00000000</i>
    <i type="logical" name="LSORBIT"> F  </i>
    <v name="SAXIS">      0.00000000      0.00000000      1.00000000</v>
    <i type="logical" name="LSPIRAL"> F  </i>
    <v name="QSPIRAL">      0.00000000      0.00000000      0.00000000</v>
    <i type="logical" name="LZEROZ"> F  </i>
   </separator>
   <separator name="electronic exchange-correlation" >
    <i type="logical" name="LASPH"> F  </i>
    <i type="logical" name="LMETAGGA"> F  </i>
   </separator>
   <separator name="electronic convergence" >
    <i type="int" name="NELM">   400</i>
    <i type="int" name="NELMDL">   -10</i>
    <i type="int" name="NELMIN">     2</i>
    <i name="ENINI">    400.00000000</i>
    <separator name="electronic convergence detail" >
     <i type="logical" name="LDIAG"> T  </i>
     <i type="logical" name="LSUBROT"> T  </i>
     <i name="WEIMIN">      0.00100000</i>
     <i name="EBREAK">      0.00000002</i>
     <i name="DEPER">      0.30000000</i>
     <i type="int" name="NRMM">     4</i>
     <i name="TIME">      0.40000000</i>
    </separator>
   </separator>
   <separator name="electronic mixer" >
    <i name="AMIX">      0.40000000</i>
    <i name="BMIX">      1.00000000</i>
    <i name="AMIN">      0.10000000</i>
    <i name="AMIX_MAG">      1.60000000</i>
    <i name="BMIX_MAG">      1.00000000</i>
    <separator name="electronic mixer details" >
     <i type="int" name="IMIX">     4</i>
     <i type="int" name="MAXMIX">   -45</i>
     <i name="WC">    100.00000000</i>
     <i type="int" name="INIMIX">     1</i>
     <i type="int" name="MIXPRE">     1</i>
     <i type="int" name="MREMOVE">     5</i>
    </separator>
   </separator>
   <separator name="electronic dipolcorrection" >
    <i type="logical" name="LDIPOL"> F  </i>
    <i type="logical" name="LMONO"> F  </i>
    <i type="int" name="IDIPOL">     0</i>
    <i name="EPSILON">      1.00000000</i>
    <v name="DIPOL">   -100.00000000   -100.00000000   -100.00000000</v>
    <i name="EFIELD">      0.00000000</i>
   </separator>
  </separator>
  <separator name="grids" >
   <i type="int" name="NGX">   140</i>
   <i type="int" name="NGY">   140</i>
   <i type="int" name="NGZ">   144</i>
   <i type="int" name="NGXF">   280</i>
   <i type="int" name="NGYF">   280</i>
   <i type="int" name="NGZF">   288</i>
   <i type="logical" name="ADDGRID"> F  </i>
  </separator>
  <separator name="ionic" >
   <i type="int" name="NSW">  1000</i>
   <i type="int" name="IBRION">     1</i>
   <i type="int" name="ISIF">     2</i>
   <i name="PSTRESS">      0.00000000</i>
   <i name="EDIFFG">     -0.04000000</i>
   <i type="int" name="NFREE">     2</i>
   <i name="POTIM">      0.20000000</i>
   <i name="SMASS">     -3.00000000</i>
   <i name="SCALEE">      1.00000000</i>
  </separator>
  <separator name="ionic md" >
   <i name="TEBEG">      0.00010000</i>
   <i name="TEEND">      0.00010000</i>
   <i type="int" name="NBLOCK">     1</i>
   <i type="int" name="KBLOCK">  1000</i>
   <i type="int" name="NPACO">   256</i>
   <i name="APACO">     16.00000000</i>
  </separator>
  <separator name="symmetry" >
   <i type="int" name="ISYM">     2</i>
   <i name="SYMPREC">      0.00001000</i>
  </separator>
  <separator name="dos" >
   <i type="logical" name="LORBIT"> F  </i>
   <v name="RWIGS">     -1.00000000</v>
   <i type="int" name="NEDOS">   301</i>
   <i name="EMIN">     10.00000000</i>
   <i name="EMAX">    -10.00000000</i>
   <i name="EFERMI">      0.00000000</i>
  </separator>
  <separator name="writing" >
   <i type="int" name="NWRITE">     1</i>
   <i type="logical" name="LWAVE"> F  </i>
   <i type="logical" name="LCHARG"> F  </i>
   <i type="logical" name="LPARD"> F  </i>
   <i type="logical" name="LVTOT"> F  </i>
   <i type="logical" name="LVHAR"> F  </i>
   <i type="logical" name="LELF"> F  </i>
   <i type="logical" name="LOPTICS"> F  </i>
   <v name="STM">      0.00000000      0.00000000      0.00000000      0.00000000      0.00000000      0.00000000      0.00000000</v>
  </separator>
  <separator name="performance" >
   <i type="int" name="NPAR">     1</i>
   <i type="int" name="NSIM">     4</i>
   <i type="int" name="NBLK">    -1</i>
   <i type="logical" name="LPLANE"> T  </i>
   <i type="logical" name="LSCALAPACK"> F  </i>
   <i type="logical" name="LSCAAWARE"> F  </i>
   <i type="logical" name="LSCALU"> F  </i>
   <i type="logical" name="LASYNC"> F  </i>
   <i type="logical" name="LORBITALREAL"> F  </i>
  </separator>
  <separator name="miscellaneous" >
   <i type="int" name="IDIOT">     3</i>
   <i type="logical" name="LMUSIC"> F  </i>
   <v name="POMASS">     16.00000000</v>
   <v name="DARWINR">      0.00000000</v>
   <v name="DARWINV">      1.00000000</v>
   <i type="logical" name="LCORR"> T  </i>
  </separator>
  <i type="logical" name="GGA_COMPAT"> T  </i>
  <i type="logical" name="LBERRY"> F  </i>
  <i type="int" name="ICORELEVEL">     0</i>
  <i type="logical" name="LDAU"> F  </i>
  <i type="int" name="I_CONSTRAINED_M">     0</i>
  <separator name="electronic exchange-correlation" >
   <i type="string" name="GGA">--</i>
   <i type="int" name="VOSKOWN">     1</i>
   <i type="logical" name="LHFCALC"> F  </i>
   <i type="string" name="PRECFOCK"></i>
   <i type="logical" name="LSYMGRAD"> F  </i>
   <i type="logical" name="LHFONE"> F  </i>
   <i type="logical" name="LRHFCALC"> F  </i>
   <i type="logical" name="LTHOMAS"> F  </i>
   <i type="logical" name="LMODELHF"> F  </i>
   <i name="ENCUT4O">     -1.00000000</i>
   <i type="int" name="EXXOEP">     0</i>
   <i type="int" name="FOURORBIT">     0</i>
   <i name="AEXX">      0.00000000</i>
   <i name="HFALPHA">      0.00000000</i>
   <i name="MCALPHA">      0.00000000</i>
   <i name="ALDAX">      1.00000000</i>
   <i name="AGGAX">      1.00000000</i>
   <i name="ALDAC">      1.00000000</i>
   <i name="AGGAC">      1.00000000</i>
   <i type="int" name="NKREDX">     1</i>
   <i type="int" name="NKREDY">     1</i>
   <i type="int" name="NKREDZ">     1</i>
   <i type="logical" name="SHIFTRED"> F  </i>
   <i type="logical" name="ODDONLY"> F  </i>
   <i type="logical" name="EVENONLY"> F  </i>
   <i type="int" name="LMAXFOCK">     0</i>
   <i type="int" name="NMAXFOCKAE">     0</i>
   <i type="logical" name="LFOCKAEDFT"> F  </i>
   <i name="HFSCREEN">      0.00000000</i>
   <i name="HFSCREENC">      0.00000000</i>
   <i type="int" name="NBANDSGWLOW">     0</i>
  </separator>
  <separator name="vdW DFT" >
   <i type="logical" name="LUSE_VDW"> F  </i>
   <i name="Zab_VDW">     -0.84910000</i>
   <i name="PARAM1">      0.12340000</i>
   <i name="PARAM2">      1.00000000</i>
   <i name="PARAM3">      0.00000000</i>
  </separator>
  <separator name="model GW" >
   <i type="int" name="MODEL_GW">     0</i>
   <i name="MODEL_EPS0">   6938.40000000</i>
   <i name="MODEL_ALPHA">      1.00000000</i>
  </separator>
  <separator name="linear response parameters" >
   <i type="logical" name="LEPSILON"> F  </i>
   <i type="logical" name="LRPA"> F  </i>
   <i type="logical" name="LNABLA"> F  </i>
   <i type="logical" name="LVEL"> F  </i>
   <i type="int" name="KINTER">     0</i>
   <i name="CSHIFT">      0.10000000</i>
   <i name="OMEGAMAX">     -1.00000000</i>
   <i name="DEG_THRESHOLD">      0.00200000</i>
  </separator>
  <separator name="orbital magnetization" >
   <i type="logical" name="NUCIND"> F  </i>
   <v name="MAGPOS">      0.00000000      0.00000000      0.00000000</v>
   <i type="logical" name="LNICSALL"> T  </i>
   <i type="logical" name="ORBITALMAG"> F  </i>
   <i type="logical" name="LMAGBLOCH"> F  </i>
   <i type="logical" name="LCHIMAG"> F  </i>
   <i type="logical" name="LGAUGE"> T  </i>
   <i type="int" name="MAGATOM">     0</i>
   <v name="MAGDIPOL">      0.00000000      0.00000000      0.00000000</v>
   <v name="AVECCONST">      0.00000000      0.00000000      0.00000000</v>
  </separator>
  <separator name="response functions" >
   <i type="logical" name="LADDER"> F  </i>
   <i type="logical" name="LHARTREE"> T  </i>
   <i type="int" name="IBSE">     0</i>
   <i type="logical" name="LTCTE"> F  </i>
   <i type="logical" name="LTETE"> F  </i>
   <i type="logical" name="LTRIPLET"> F  </i>
   <i type="logical" name="LFXCEPS"> F  </i>
   <i type="logical" name="L2ORDER"> F  </i>
   <i type="logical" name="LUSEW"> F  </i>
   <i name="ENCUTGW">     -2.00000000</i>
   <i name="ENCUTGWSOFT">     -2.00000000</i>
   <i name="ENCUTLF">     -1.00000000</i>
   <i type="int" name="LMAXMP2">    -1</i>
   <i name="SCISSOR">      0.00000000</i>
   <i type="int" name="NOMEGA">     0</i>
   <i type="int" name="NOMEGAR">     0</i>
   <i type="int" name="NBANDSGW">    -1</i>
   <i type="int" name="NBANDSO">    -1</i>
   <i type="int" name="NBANDSV">    -1</i>
   <i type="int" name="NELM">   400</i>
   <i type="int" name="DIM">     3</i>
   <i type="int" name="ANTIRES">     0</i>
   <i name="OMEGAMAX">    -30.00000000</i>
   <i name="OMEGATL">   -200.00000000</i>
   <i type="int" name="OMEGAGRID">     0</i>
   <i name="CSHIFT">     -0.10000000</i>
   <i type="logical" name="SELFENERGY"> F  </i>
   <i type="logical" name="LSPECTRAL"> F  </i>
   <i type="logical" name="ODDONLYGW"> F  </i>
   <i type="logical" name="EVENONLYGW"> F  </i>
   <i type="int" name="NKREDLFX">     1</i>
   <i type="int" name="NKREDLFY">     1</i>
   <i type="int" name="NKREDLFZ">     1</i>
   <i type="int" name="MAXMEM">  1800</i>
   <i type="int" name="TELESCOPE">     0</i>
  </separator>
 </parameters>
 <atominfo>
  <atoms>       2 </atoms>
  <types>       1 </types>
  <array name="atoms" >
   <dimension dim="1">ion</dimension>
   <field type="string">element</field>
   <field type="int">atomtype</field>
   <set>
    <rc><c>O </c><c>   1</c></rc>
    <rc><c>O </c><c>   1</c></rc>
   </set>
  </array>
  <array name="atomtypes" >
   <dimension dim="1">type</dimension>
   <field type="int">atomspertype</field>
   <field type="string">element</field>
   <field>mass</field>
   <field>valence</field>
   <field type="string">pseudopotential</field>
   <set>
    <rc><c>   2</c><c>O </c><c>     16.00000000</c><c>      6.00000000</c><c> PAW_GGA O 05Jan2001                    </c></rc>
   </set>
  </array>
 </atominfo>
 <structure name="initialpos" >
  <crystal>
   <varray name="basis" >
    <v>      28.00000000       0.00000000       0.00000000 </v>
    <v>       0.00000000      28.00000000       0.00000000 </v>
    <v>       0.00000000       0.00000000      29.50000000 </v>
   </varray>
   <i name="volume">  23128.00000000 </i>
   <varray name="rec_basis" >
    <v>       0.03571429       0.00000000       0.00000000 </v>
    <v>       0.00000000       0.03571429       0.00000000 </v>
    <v>       0.00000000       0.00000000       0.03389831 </v>
   </varray>
  </crystal>
  <varray name="positions" >
   <v>       0.50000000       0.50000000       0.47457627 </v>
   <v>       0.50000000       0.50000000       0.51525424 </v>
  </varray>
 </structure>
 <calculation>
  <scstep>
   <time name="dav">   11.19   11.19</time>
   <time name="total">   58.85   58.86</time>
   <energy>
    <i name="alphaZ">      0.02383034 </i>
    <i name="ewald">    328.89863108 </i>
    <i name="hartreedc">  -1052.71251648 </i>
    <i name="XCdc">     54.98540367 </i>
    <i name="pawpsdc">    492.37991565 </i>
    <i name="pawaedc">   -496.26382662 </i>
    <i name="eentropy">      0.00031308 </i>
    <i name="bandstr">    -67.97837242 </i>
    <i name="atom">    865.82426828 </i>
    <i name="e_fr_energy">    125.15764656 </i>
    <i name="e_wo_entrp">    125.15733349 </i>
    <i name="e_0_energy">    125.15754220 </i>
   </energy>
  </scstep>
  <scstep>
   <time name="dav">   10.95   10.95</time>
   <time name="total">   10.95   10.96</time>
   <energy>
    <i name="e_fr_energy">     43.01628310 </i>
    <i name="e_wo_entrp">     43.01628310 </i>
    <i name="e_0_energy">     43.01628310 </i>
   </energy>
  </scstep>
  <scstep>
   <time name="dav">    8.80    8.80</time>
   <time name="total">    8.80    8.80</time>
   <energy>
    <i name="e_fr_energy">      7.64126788 </i>
    <i name="e_wo_entrp">      7.64126788 </i>
    <i name="e_0_energy">      7.64126788 </i>
   </energy>
  </scstep>
  <scstep>
   <time name="dav">   10.74   10.75</time>
   <time name="total">   10.75   10.81</time>
   <energy>
    <i name="e_fr_energy">     -2.45192948 </i>
    <i name="e_wo_entrp">     -2.45192948 </i>
    <i name="e_0_energy">     -2.45192948 </i>
   </energy>
  </scstep>
  <scstep>
   <time name="dav">    9.99    9.99</time>
   <time name="total">    9.99   10.00</time>
   <energy>
    <i name="e_fr_energy">     -9.24780149 </i>
    <i name="e_wo_entrp">     -9.24780149 </i>
    <i name="e_0_energy">     -9.24780149 </i>
   </energy>
  </scstep>
  <scstep>
   <time name="dav">    8.80    8.80</time>
   <time name="total">    8.80    8.81</time>
   <energy>
    <i name="e_fr_energy">     -9.78080033 </i>
    <i name="e_wo_entrp">     -9.78080033 </i>
    <i name="e_0_energy">     -9.78080033 </i>
   </energy>
  </scstep>
  <scstep>
   <time name="dav">   10.74   10.74</time>
   <time name="total">   10.74   10.81</time>
   <energy>
    <i name="e_fr_energy">     -9.79176579 </i>
    <i name="e_wo_entrp">     -9.79176579 </i>
    <i name="e_0_energy">     -9.79176579 </i>
   </energy>
  </scstep>
  <scstep>
   <time name="dav">   10.77   10.77</time>
   <time name="total">   10.77   10.88</time>
   <energy>
    <i name="e_fr_energy">     -9.79193348 </i>
    <i name="e_wo_entrp">     -9.79193348 </i>
    <i name="e_0_energy">     -9.79193348 </i>
   </energy>
  </scstep>
  <scstep>
   <time name="dav">   10.75   10.75</time>
   <time name="total">   10.75   10.76</time>
   <energy>
    <i name="e_fr_energy">     -9.79193744 </i>
    <i name="e_wo_entrp">     -9.79193744 </i>
    <i name="e_0_energy">     -9.79193744 </i>
   </energy>
  </scstep>
  <scstep>
   <time name="dav">   10.73   10.73</time>
   <time name="total">   14.05   14.11</time>
   <energy>
    <i name="e_fr_energy">     -9.79193755 </i>
    <i name="e_wo_entrp">     -9.79193755 </i>
    <i name="e_0_energy">     -9.79193755 </i>
   </energy>
  </scstep>
  <scstep>
   <time name="diag">    1.63    1.63</time>
   <time name="diis">    4.91    4.91</time>
   <time name="orth">    0.05    0.05</time>
   <time name="total">   58.43   58.44</time>
   <energy>
    <i name="e_fr_energy">     -9.48741834 </i>
    <i name="e_wo_entrp">     -9.48799813 </i>
    <i name="e_0_energy">     -9.48761160 </i>
   </energy>
  </scstep>
  <scstep>
   <time name="diag">    1.61    1.61</time>
   <time name="diis">    4.91    4.91</time>
   <time name="orth">    0.05    0.05</time>
   <time name="total">   58.06   58.07</time>
   <energy>
    <i name="e_fr_energy">     -9.76216049 </i>
    <i name="e_wo_entrp">     -9.76216049 </i>
    <i name="e_0_energy">     -9.76216049 </i>
   </energy>
  </scstep>
  <scstep>
   <time name="diag">    1.62    1.62</time>
   <time name="diis">    4.89    4.89</time>
   <time name="orth">    0.05    0.05</time>
   <time name="total">   58.20   58.22</time>
   <energy>
    <i name="e_fr_energy">     -9.76030273 </i>
    <i name="e_wo_entrp">     -9.76088253 </i>
    <i name="e_0_energy">     -9.76049600 </i>
   </energy>
  </scstep>
  <scstep>
   <time name="diag">    1.63    1.63</time>
   <time name="diis">    4.91    4.91</time>
   <time name="orth">    0.05    0.05</time>
   <time name="total">   58.16   58.18</time>
   <energy>
    <i name="e_fr_energy">     -9.76771293 </i>
    <i name="e_wo_entrp">     -9.76771293 </i>
    <i name="e_0_energy">     -9.76771293 </i>
   </energy>
  </scstep>
  <scstep>
   <time name="diag">    1.62    1.62</time>
   <time name="diis">    4.93    4.93</time>
   <time name="orth">    0.05    0.05</time>
   <time name="total">   57.99   58.00</time>
   <energy>
    <i name="e_fr_energy">     -9.76939016 </i>
    <i name="e_wo_entrp">     -9.76996995 </i>
    <i name="e_0_energy">     -9.76958342 </i>
   </energy>
  </scstep>
  <scstep>
   <time name="diag">    1.63    1.63</time>
   <time name="diis">    4.93    4.93</time>
   <time name="orth">    0.05    0.05</time>
   <time name="total">   57.96   58.15</time>
   <energy>
    <i name="e_fr_energy">     -9.77027261 </i>
    <i name="e_wo_entrp">     -9.77027261 </i>
    <i name="e_0_energy">     -9.77027261 </i>
   </energy>
  </scstep>
  <scstep>
   <time name="diag">    1.63    1.63</time>
   <time name="diis">    4.91    4.91</time>
   <time name="orth">    0.05    0.05</time>
   <time name="total">   57.93   57.94</time>
   <energy>
    <i name="e_fr_energy">     -9.77059272 </i>
    <i name="e_wo_entrp">     -9.77059272 </i>
    <i name="e_0_energy">     -9.77059272 </i>
   </energy>
  </scstep>
  <scstep>
   <time name="diag">    1.63    1.63</time>
   <time name="diis">    4.73    4.73</time>
   <time name="orth">    0.05    0.05</time>
   <time name="total">   57.70   57.73</time>
   <energy>
    <i name="e_fr_energy">     -9.77076794 </i>
    <i name="e_wo_entrp">     -9.77076794 </i>
    <i name="e_0_energy">     -9.77076794 </i>
   </energy>
  </scstep>
  <scstep>
   <time name="diag">    1.63    1.63</time>
   <time name="diis">    4.73    4.73</time>
   <time name="orth">    0.05    0.05</time>
   <time name="total">   57.75   57.78</time>
   <energy>
    <i name="e_fr_energy">     -9.77098382 </i>
    <i name="e_wo_entrp">     -9.77098382 </i>
    <i name="e_0_energy">     -9.77098382 </i>
   </energy>
  </scstep>
  <scstep>
   <time name="diag">    1.63    1.63</time>
   <time name="diis">    4.72    4.72</time>
   <time name="orth">    0.05    0.05</time>
   <time name="total">   57.76   57.77</time>
   <energy>
    <i name="e_fr_energy">     -9.77119901 </i>
    <i name="e_wo_entrp">     -9.77119901 </i>
    <i name="e_0_energy">     -9.77119901 </i>
   </energy>
  </scstep>
  <scstep>
   <time name="diag">    1.63    1.63</time>
   <time name="diis">    4.35    4.35</time>
   <time name="orth">    0.05    0.05</time>
   <time name="total">   57.34   57.35</time>
   <energy>
    <i name="e_fr_energy">     -9.77126621 </i>
    <i name="e_wo_entrp">     -9.77126621 </i>
    <i name="e_0_energy">     -9.77126621 </i>
   </energy>
  </scstep>
  <scstep>
   <time name="diag">    1.63    1.63</time>
   <time name="diis">    4.44    4.44</time>
   <time name="orth">    0.05    0.05</time>
   <time name="total">   57.45   57.46</time>
   <energy>
    <i name="e_fr_energy">     -9.77135233 </i>
    <i name="e_wo_entrp">     -9.77135233 </i>
    <i name="e_0_energy">     -9.77135233 </i>
   </energy>
  </scstep>
  <scstep>
   <time name="diag">    1.63    1.63</time>
   <time name="diis">    4.05    4.05</time>
   <time name="orth">    0.05    0.05</time>
   <time name="total">   57.04   57.07</time>
   <energy>
    <i name="e_fr_energy">     -9.77136998 </i>
    <i name="e_wo_entrp">     -9.77136998 </i>
    <i name="e_0_energy">     -9.77136998 </i>
   </energy>
  </scstep>
  <scstep>
   <time name="diag">    1.82    1.82</time>
   <time name="diis">    4.57    4.57</time>
   <time name="orth">    0.05    0.05</time>
   <time name="total">   59.96   59.99</time>
   <energy>
    <i name="e_fr_energy">     -9.77139714 </i>
    <i name="e_wo_entrp">     -9.77139714 </i>
    <i name="e_0_energy">     -9.77139714 </i>
   </energy>
  </scstep>
  <scstep>
   <time name="diag">    1.80    1.80</time>
   <time name="diis">    4.60    4.60</time>
   <time name="orth">    0.05    0.05</time>
   <time name="total">   59.47   59.51</time>
   <energy>
    <i name="e_fr_energy">     -9.77084409 </i>
    <i name="e_wo_entrp">     -9.77142388 </i>
    <i name="e_0_energy">     -9.77103735 </i>
   </energy>
  </scstep>
  <scstep>
   <time name="diag">    1.80    1.80</time>
   <time name="diis">    4.37    4.37</time>
   <time name="orth">    0.05    0.05</time>
   <time name="total">   59.58   59.61</time>
   <energy>
    <i name="e_fr_energy">     -9.77084722 </i>
    <i name="e_wo_entrp">     -9.77142701 </i>
    <i name="e_0_energy">     -9.77104048 </i>
   </energy>
  </scstep>
  <scstep>
   <time name="diag">    1.76    1.76</time>
   <time name="diis">    4.37    4.37</time>
   <time name="orth">    0.05    0.05</time>
   <time name="total">   59.28   59.31</time>
   <energy>
    <i name="e_fr_energy">     -9.77084838 </i>
    <i name="e_wo_entrp">     -9.77142817 </i>
    <i name="e_0_energy">     -9.77104164 </i>
   </energy>
  </scstep>
  <scstep>
   <time name="diag">    1.81    1.81</time>
   <time name="diis">    4.15    4.15</time>
   <time name="orth">    0.05    0.05</time>
   <time name="total">   54.90   54.91</time>
   <energy>
    <i name="alphaZ">      0.02383034 </i>
    <i name="ewald">    328.89863108 </i>
    <i name="hartreedc">  -1060.44953714 </i>
    <i name="XCdc">     55.75122924 </i>
    <i name="pawpsdc">    581.82012585 </i>
    <i name="pawaedc">   -585.67109950 </i>
    <i name="eentropy">      0.00057979 </i>
    <i name="bandstr">   -195.96887656 </i>
    <i name="atom">    865.82426828 </i>
    <i name="e_fr_energy">     -9.77084863 </i>
    <i name="e_wo_entrp">     -9.77142842 </i>
    <i name="e_0_energy">     -9.77104189 </i>
   </energy>
  </scstep>
  <structure>
   <crystal>
    <varray name="basis" >
     <v>      28.00000000       0.00000000       0.00000000 </v>
     <v>       0.00000000      28.00000000       0.00000000 </v>
     <v>       0.00000000       0.00000000      29.50000000 </v>
    </varray>
    <i name="volume">  23128.00000000 </i>
    <varray name="rec_basis" >
     <v>       0.03571429       0.00000000       0.00000000 </v>
     <v>       0.00000000       0.03571429       0.00000000 </v>
     <v>       0.00000000       0.00000000       0.03389831 </v>
    </varray>
   </crystal>
   <varray name="positions" >
    <v>       0.50000000       0.50000000       0.47457627 </v>
    <v>       0.50000000       0.50000000       0.51525424 </v>
   </varray>
  </structure>
  <varray name="forces" >
   <v>       0.00000000       0.00000000      -2.88912943 </v>
   <v>       0.00000000       0.00000000       2.88912943 </v>
  </varray>
  <varray name="stress" >
   <v>      -0.11053974       0.00000000       0.00000000 </v>
   <v>       0.00000000      -0.11053974       0.00000000 </v>
   <v>       0.00000000       0.00000000       0.15358376 </v>
  </varray>
  <energy>
   <i name="e_fr_energy">     -9.77084863 </i>
   <i name="e_wo_entrp">     -9.77104189 </i>
   <i name="e_0_energy">      0.00057979 </i>
  </energy>
  <time name="totalsc"> 1267.88 1268.88</time>
 </calculation>
 <calculation>
  <scstep>
   <time name="dav">    8.91    8.91</time>
   <time name="total">   61.37   61.38</time>
   <energy>
    <i name="alphaZ">      0.02383034 </i>
    <i name="ewald">    292.18190150 </i>
    <i name="hartreedc">  -1033.10278881 </i>
    <i name="XCdc">     55.29470395 </i>
    <i name="pawpsdc">    581.81954617 </i>
    <i name="pawaedc">   -585.67051520 </i>
    <i name="eentropy">      0.00057979 </i>
    <i name="bandstr">   -185.99836999 </i>
    <i name="atom">    865.82426828 </i>
    <i name="e_fr_energy">     -9.62684397 </i>
    <i name="e_wo_entrp">     -9.62742376 </i>
    <i name="e_0_energy">     -9.62684397 </i>
   </energy>
  </scstep>
  <scstep>
   <time name="diag">    1.81    1.81</time>
   <time name="diis">    5.67    5.67</time>
   <time name="orth">    0.05    0.05</time>
   <time name="total">   60.78   61.01</time>
   <energy>
    <i name="e_fr_energy">     -9.62854112 </i>
    <i name="e_wo_entrp">     -9.62912092 </i>
    <i name="e_0_energy">     -9.62854112 </i>
   </energy>
  </scstep>
  <scstep>
   <time name="diag">    1.80    1.80</time>
   <time name="diis">    5.64    5.64</time>
   <time name="orth">    0.05    0.05</time>
   <time name="total">   60.89   60.91</time>
   <energy>
    <i name="e_fr_energy">     -9.64261686 </i>
    <i name="e_wo_entrp">     -9.64261686 </i>
    <i name="e_0_energy">     -9.64261686 </i>
   </energy>
  </scstep>
  <scstep>
   <time name="diag">    1.81    1.81</time>
   <time name="diis">    5.70    5.70</time>
   <time name="orth">    0.05    0.05</time>
   <time name="total">   61.28   61.31</time>
   <energy>
    <i name="e_fr_energy">     -9.64459255 </i>
    <i name="e_wo_entrp">     -9.64517234 </i>
    <i name="e_0_energy">     -9.64459255 </i>
   </energy>
  </scstep>
  <scstep>
   <time name="diag">    1.78    1.78</time>
   <time name="diis">    5.71    5.72</time>
   <time name="orth">    0.05    0.05</time>
   <time name="total">   61.14   61.16</time>
   <energy>
    <i name="e_fr_energy">     -9.64626144 </i>
    <i name="e_wo_entrp">     -9.64684123 </i>
    <i name="e_0_energy">     -9.64626144 </i>
   </energy>
  </scstep>
  <scstep>
   <time name="diag">    1.79    1.79</time>
   <time name="diis">    5.76    5.76</time>
   <time name="orth">    0.05    0.05</time>
   <time name="total">   61.51   61.52</time>
   <energy>
    <i name="e_fr_energy">     -9.64717954 </i>
    <i name="e_wo_entrp">     -9.64717954 </i>
    <i name="e_0_energy">     -9.64717954 </i>
   </energy>
  </scstep>
  <scstep>
   <time name="diag">    1.83    1.83</time>
   <time name="diis">    5.76    5.76</time>
   <time name="orth">    0.05    0.05</time>
   <time name="total">   61.12   61.13</time>
   <energy>
    <i name="e_fr_energy">     -9.64680022 </i>
    <i name="e_wo_entrp">     -9.64738001 </i>
    <i name="e_0_energy">     -9.64680022 </i>
   </energy>
  </scstep>
  <scstep>
   <time name="diag">    1.83    1.83</time>
   <time name="diis">    5.72    5.72</time>
   <time name="orth">    0.05    0.05</time>
   <time name="total">   60.56   60.58</time>
   <energy>
    <i name="e_fr_energy">     -9.64697334 </i>
    <i name="e_wo_entrp">     -9.64755313 </i>
    <i name="e_0_energy">     -9.64697334 </i>
   </energy>
  </scstep>
  <scstep>
   <time name="diag">    1.83    1.83</time>
   <time name="diis">    5.49    5.49</time>
   <time name="orth">    0.05    0.05</time>
   <time name="total">   60.54   60.56</time>
   <energy>
    <i name="e_fr_energy">     -9.64722435 </i>
    <i name="e_wo_entrp">     -9.64780414 </i>
    <i name="e_0_energy">     -9.64722435 </i>
   </energy>
  </scstep>
  <scstep>
   <time name="diag">    1.83    1.83</time>
   <time name="diis">    5.39    5.39</time>
   <time name="orth">    0.05    0.05</time>
   <time name="total">   59.97   59.98</time>
   <energy>
    <i name="e_fr_energy">     -9.64792179 </i>
    <i name="e_wo_entrp">     -9.64792179 </i>
    <i name="e_0_energy">     -9.64792179 </i>
   </energy>
  </scstep>
  <scstep>
   <time name="diag">    1.82    1.82</time>
   <time name="diis">    5.27    5.27</time>
   <time name="orth">    0.05    0.05</time>
   <time name="total">   60.17   60.20</time>
   <energy>
    <i name="e_fr_energy">     -9.64740727 </i>
    <i name="e_wo_entrp">     -9.64798706 </i>
    <i name="e_0_energy">     -9.64740727 </i>
   </energy>
  </scstep>
  <scstep>
   <time name="diag">    1.81    1.81</time>
   <time name="diis">    5.22    5.22</time>
   <time name="orth">    0.05    0.05</time>
   <time name="total">   59.98   60.01</time>
   <energy>
    <i name="e_fr_energy">     -9.64751662 </i>
    <i name="e_wo_entrp">     -9.64809641 </i>
    <i name="e_0_energy">     -9.64751662 </i>
   </energy>
  </scstep>
  <scstep>
   <time name="diag">    1.81    1.81</time>
   <time name="diis">    4.32    4.32</time>
   <time name="orth">    0.05    0.05</time>
   <time name="total">   59.47   59.48</time>
   <energy>
    <i name="e_fr_energy">     -9.64754542 </i>
    <i name="e_wo_entrp">     -9.64812521 </i>
    <i name="e_0_energy">     -9.64754542 </i>
   </energy>
  </scstep>
  <scstep>
   <time name="diag">    1.82    1.82</time>
   <time name="diis">    4.37    4.37</time>
   <time name="orth">    0.05    0.05</time>
   <time name="total">   59.51   59.55</time>
   <energy>
    <i name="e_fr_energy">     -9.64757845 </i>
    <i name="e_wo_entrp">     -9.64815824 </i>
    <i name="e_0_energy">     -9.64757845 </i>
   </energy>
  </scstep>
  <scstep>
   <time name="diag">    1.81    1.81</time>
   <time name="diis">    4.36    4.36</time>
   <time name="orth">    0.05    0.05</time>
   <time name="total">   59.35   59.37</time>
   <energy>
    <i name="e_fr_energy">     -9.64758738 </i>
    <i name="e_wo_entrp">     -9.64816717 </i>
    <i name="e_0_energy">     -9.64758738 </i>
   </energy>
  </scstep>
  <scstep>
   <time name="diag">    1.82    1.82</time>
   <time name="diis">    4.13    4.13</time>
   <time name="orth">    0.05    0.05</time>
   <time name="total">   59.19   59.22</time>
   <energy>
    <i name="e_fr_energy">     -9.64758976 </i>
    <i name="e_wo_entrp">     -9.64816955 </i>
    <i name="e_0_energy">     -9.64758976 </i>
   </energy>
  </scstep>
  <scstep>
   <time name="diag">    1.80    1.80</time>
   <time name="diis">    4.12    4.12</time>
   <time name="orth">    0.05    0.05</time>
   <time name="total">   54.87   54.88</time>
   <energy>
    <i name="alphaZ">      0.02383034 </i>
    <i name="ewald">    292.18190150 </i>
    <i name="hartreedc">  -1028.16941153 </i>
    <i name="XCdc">     54.96996290 </i>
    <i name="pawpsdc">    549.01259150 </i>
    <i name="pawaedc">   -552.71641592 </i>
    <i name="eentropy">      0.00057979 </i>
    <i name="bandstr">   -190.77489597 </i>
    <i name="atom">    865.82426828 </i>
    <i name="e_fr_energy">     -9.64758912 </i>
    <i name="e_wo_entrp">     -9.64816891 </i>
    <i name="e_0_energy">     -9.64758912 </i>
   </energy>
  </scstep>
  <structure>
   <crystal>
    <varray name="basis" >
     <v>      28.00000000       0.00000000       0.00000000 </v>
     <v>       0.00000000      28.00000000       0.00000000 </v>
     <v>       0.00000000       0.00000000      29.50000000 </v>
    </varray>
    <i name="volume">  23128.00000000 </i>
    <varray name="rec_basis" >
     <v>       0.03571429       0.00000000       0.00000000 </v>
     <v>       0.00000000       0.03571429       0.00000000 </v>
     <v>       0.00000000       0.00000000       0.03389831 </v>
    </varray>
   </crystal>
   <varray name="positions" >
    <v>       0.50000000       0.50000000       0.47268638 </v>
    <v>       0.50000000       0.50000000       0.51714413 </v>
   </varray>
  </structure>
  <varray name="forces" >
   <v>       0.00000000       0.00000000       4.15473428 </v>
   <v>       0.00000000       0.00000000      -4.15473428 </v>
  </varray>
  <varray name="stress" >
   <v>      -0.11071282       0.00000000       0.00000000 </v>
   <v>       0.00000000      -0.11071282       0.00000000 </v>
   <v>       0.00000000       0.00000000      -0.45099560 </v>
  </varray>
  <energy>
   <i name="e_fr_energy">     -9.64758912 </i>
   <i name="e_wo_entrp">     -9.64778238 </i>
   <i name="e_0_energy">      0.00057979 </i>
  </energy>
  <time name="totalsc"> 1090.27 1090.86</time>
 </calculation>
 <calculation>
  <scstep>
   <time name="dav">   10.38   10.38</time>
   <time name="total">   63.01   63.01</time>
   <energy>
    <i name="alphaZ">      0.02383034 </i>
    <i name="ewald">    313.04335112 </i>
    <i name="hartreedc">  -1043.98698592 </i>
    <i name="XCdc">     55.23160419 </i>
    <i name="pawpsdc">    549.01202776 </i>
    <i name="pawaedc">   -552.71584550 </i>
    <i name="eentropy">      0.00000000 </i>
    <i name="bandstr">   -196.23618705 </i>
    <i name="atom">    865.82426828 </i>
    <i name="e_fr_energy">     -9.80393680 </i>
    <i name="e_wo_entrp">     -9.80393680 </i>
    <i name="e_0_energy">     -9.80393680 </i>
   </energy>
  </scstep>
  <scstep>
   <time name="diag">    1.77    1.77</time>
   <time name="diis">    5.69    5.69</time>
   <time name="orth">    0.05    0.05</time>
   <time name="total">   61.08   61.11</time>
   <energy>
    <i name="e_fr_energy">     -9.80632656 </i>
    <i name="e_wo_entrp">     -9.80632656 </i>
    <i name="e_0_energy">     -9.80632656 </i>
   </energy>
  </scstep>
  <scstep>
   <time name="diag">    1.81    1.81</time>
   <time name="diis">    5.71    5.71</time>
   <time name="orth">    0.05    0.05</time>
   <time name="total">   60.99   61.04</time>
   <energy>
    <i name="e_fr_energy">     -9.81418387 </i>
    <i name="e_wo_entrp">     -9.81418387 </i>
    <i name="e_0_energy">     -9.81418387 </i>
   </energy>
  </scstep>
  <scstep>
   <time name="diag">    1.80    1.80</time>
   <time name="diis">    5.71    5.71</time>
   <time name="orth">    0.05    0.05</time>
   <time name="total">   60.89   60.93</time>
   <energy>
    <i name="e_fr_energy">     -9.81561720 </i>
    <i name="e_wo_entrp">     -9.81561720 </i>
    <i name="e_0_energy">     -9.81561720 </i>
   </energy>
  </scstep>
  <scstep>
   <time name="diag">    1.82    1.82</time>
   <time name="diis">    5.72    5.72</time>
   <time name="orth">    0.05    0.05</time>
   <time name="total">   61.18   61.20</time>
   <energy>
    <i name="e_fr_energy">     -9.81630543 </i>
    <i name="e_wo_entrp">     -9.81630543 </i>
    <i name="e_0_energy">     -9.81630543 </i>
   </energy>
  </scstep>
  <scstep>
   <time name="diag">    1.80    1.80</time>
   <time name="diis">    5.69    5.70</time>
   <time name="orth">    0.05    0.05</time>
   <time name="total">   61.20   61.24</time>
   <energy>
    <i name="e_fr_energy">     -9.81669871 </i>
    <i name="e_wo_entrp">     -9.81669871 </i>
    <i name="e_0_energy">     -9.81669871 </i>
   </energy>
  </scstep>
  <scstep>
   <time name="diag">    1.82    1.82</time>
   <time name="diis">    5.69    5.69</time>
   <time name="orth">    0.05    0.05</time>
   <time name="total">   61.09   61.11</time>
   <energy>
    <i name="e_fr_energy">     -9.81688119 </i>
    <i name="e_wo_entrp">     -9.81688119 </i>
    <i name="e_0_energy">     -9.81688119 </i>
   </energy>
  </scstep>
  <scstep>
   <time name="diag">    1.82    1.82</time>
   <time name="diis">    5.41    5.41</time>
   <time name="orth">    0.05    0.05</time>
   <time name="total">   60.67   60.72</time>
   <energy>
    <i name="e_fr_energy">     -9.81693317 </i>
    <i name="e_wo_entrp">     -9.81693317 </i>
    <i name="e_0_energy">     -9.81693317 </i>
   </energy>
  </scstep>
  <scstep>
   <time name="diag">    1.82    1.82</time>
   <time name="diis">    5.30    5.30</time>
   <time name="orth">    0.05    0.05</time>
   <time name="total">   60.44   60.45</time>
   <energy>
    <i name="e_fr_energy">     -9.81701074 </i>
    <i name="e_wo_entrp">     -9.81701074 </i>
    <i name="e_0_energy">     -9.81701074 </i>
   </energy>
  </scstep>
  <scstep>
   <time name="diag">    1.82    1.82</time>
   <time name="diis">    5.30    5.30</time>
   <time name="orth">    0.05    0.05</time>
   <time name="total">   60.32   60.34</time>
   <energy>
    <i name="e_fr_energy">     -9.81707336 </i>
    <i name="e_wo_entrp">     -9.81707336 </i>
    <i name="e_0_energy">     -9.81707336 </i>
   </energy>
  </scstep>
  <scstep>
   <time name="diag">    1.83    1.83</time>
   <time name="diis">    4.75    4.75</time>
   <time name="orth">    0.05    0.05</time>
   <time name="total">   59.76   59.79</time>
   <energy>
    <i name="e_fr_energy">     -9.81652161 </i>
    <i name="e_wo_entrp">     -9.81710140 </i>
    <i name="e_0_energy">     -9.81652161 </i>
   </energy>
  </scstep>
  <scstep>
   <time name="diag">    1.81    1.81</time>
   <time name="diis">    4.99    4.99</time>
   <time name="orth">    0.05    0.05</time>
   <time name="total">   60.07   60.10</time>
   <energy>
    <i name="e_fr_energy">     -9.81714164 </i>
    <i name="e_wo_entrp">     -9.81714164 </i>
    <i name="e_0_energy">     -9.81714164 </i>
   </energy>
  </scstep>
  <scstep>
   <time name="diag">    1.81    1.81</time>
   <time name="diis">    4.31    4.31</time>
   <time name="orth">    0.05    0.05</time>
   <time name="total">   59.39   59.41</time>
   <energy>
    <i name="e_fr_energy">     -9.81715657 </i>
    <i name="e_wo_entrp">     -9.81715657 </i>
    <i name="e_0_energy">     -9.81715657 </i>
   </energy>
  </scstep>
  <scstep>
   <time name="diag">    1.81    1.81</time>
   <time name="diis">    4.32    4.32</time>
   <time name="orth">    0.05    0.05</time>
   <time name="total">   59.38   59.41</time>
   <energy>
    <i name="e_fr_energy">     -9.81717625 </i>
    <i name="e_wo_entrp">     -9.81717625 </i>
    <i name="e_0_energy">     -9.81717625 </i>
   </energy>
  </scstep>
  <scstep>
   <time name="diag">    1.81    1.81</time>
   <time name="diis">    4.11    4.11</time>
   <time name="orth">    0.05    0.05</time>
   <time name="total">   59.19   59.21</time>
   <energy>
    <i name="e_fr_energy">     -9.81718338 </i>
    <i name="e_wo_entrp">     -9.81718338 </i>
    <i name="e_0_energy">     -9.81718338 </i>
   </energy>
  </scstep>
  <scstep>
   <time name="diag">    1.81    1.81</time>
   <time name="diis">    4.03    4.03</time>
   <time name="orth">    0.05    0.05</time>
   <time name="total">   54.82   54.84</time>
   <energy>
    <i name="alphaZ">      0.02383034 </i>
    <i name="ewald">    313.04335112 </i>
    <i name="hartreedc">  -1046.69083286 </i>
    <i name="XCdc">     55.40859332 </i>
    <i name="pawpsdc">    566.66378127 </i>
    <i name="pawaedc">   -570.44396385 </i>
    <i name="eentropy">      0.00000000 </i>
    <i name="bandstr">   -193.64621137 </i>
    <i name="atom">    865.82426828 </i>
    <i name="e_fr_energy">     -9.81718376 </i>
    <i name="e_wo_entrp">     -9.81718376 </i>
    <i name="e_0_energy">     -9.81718376 </i>
   </energy>
  </scstep>
  <structure>
   <crystal>
    <varray name="basis" >
     <v>      28.00000000       0.00000000       0.00000000 </v>
     <v>       0.00000000      28.00000000       0.00000000 </v>
     <v>       0.00000000       0.00000000      29.50000000 </v>
    </varray>
    <i name="volume">  23128.00000000 </i>
    <varray name="rec_basis" >
     <v>       0.03571429       0.00000000       0.00000000 </v>
     <v>       0.00000000       0.03571429       0.00000000 </v>
     <v>       0.00000000       0.00000000       0.03389831 </v>
    </varray>
   </crystal>
   <varray name="positions" >
    <v>       0.50000000       0.50000000       0.47380111 </v>
    <v>       0.50000000       0.50000000       0.51602940 </v>
   </varray>
  </structure>
  <varray name="forces" >
   <v>       0.00000000       0.00000000       0.70380037 </v>
   <v>       0.00000000       0.00000000      -0.70380037 </v>
  </varray>
  <varray name="stress" >
   <v>      -0.11014129       0.00000000       0.00000000 </v>
   <v>       0.00000000      -0.11014129       0.00000000 </v>
   <v>       0.00000000       0.00000000      -0.14069834 </v>
  </varray>
  <energy>
   <i name="e_fr_energy">     -9.81718376 </i>
   <i name="e_wo_entrp">     -9.81718376 </i>
   <i name="e_0_energy">      0.00000000 </i>
  </energy>
  <time name="totalsc"> 1031.87 1032.34</time>
 </calculation>
 <calculation>
  <scstep>
   <time name="dav">    9.02    9.03</time>
   <time name="total">   61.59   61.60</time>
   <energy>
    <i name="alphaZ">      0.02383034 </i>
    <i name="ewald">    317.57144444 </i>
    <i name="hartreedc">  -1050.03367874 </i>
    <i name="XCdc">     55.46646469 </i>
    <i name="pawpsdc">    566.66290425 </i>
    <i name="pawaedc">   -570.44307854 </i>
    <i name="eentropy">      0.00057979 </i>
    <i name="bandstr">   -194.89205951 </i>
    <i name="atom">    865.82426828 </i>
    <i name="e_fr_energy">     -9.81932501 </i>
    <i name="e_wo_entrp">     -9.81990480 </i>
    <i name="e_0_energy">     -9.81932501 </i>
   </energy>
  </scstep>
  <scstep>
   <time name="diag">    1.78    1.78</time>
   <time name="diis">    5.65    5.65</time>
   <time name="orth">    0.05    0.05</time>
   <time name="total">   60.45   60.48</time>
   <energy>
    <i name="e_fr_energy">     -9.81993144 </i>
    <i name="e_wo_entrp">     -9.81993144 </i>
    <i name="e_0_energy">     -9.81993144 </i>
   </energy>
  </scstep>
  <scstep>
   <time name="diag">    1.81    1.81</time>
   <time name="diis">    5.71    5.71</time>
   <time name="orth">    0.05    0.05</time>
   <time name="total">   60.50   60.52</time>
   <energy>
    <i name="e_fr_energy">     -9.82014006 </i>
    <i name="e_wo_entrp">     -9.82014006 </i>
    <i name="e_0_energy">     -9.82014006 </i>
   </energy>
  </scstep>
  <scstep>
   <time name="diag">    1.81    1.81</time>
   <time name="diis">    5.71    5.71</time>
   <time name="orth">    0.05    0.05</time>
   <time name="total">   60.39   60.42</time>
   <energy>
    <i name="e_fr_energy">     -9.82029881 </i>
    <i name="e_wo_entrp">     -9.82029881 </i>
    <i name="e_0_energy">     -9.82029881 </i>
   </energy>
  </scstep>
  <scstep>
   <time name="diag">    1.81    1.81</time>
   <time name="diis">    5.73    5.73</time>
   <time name="orth">    0.05    0.05</time>
   <time name="total">   60.47   60.49</time>
   <energy>
    <i name="e_fr_energy">     -9.82034728 </i>
    <i name="e_wo_entrp">     -9.82034728 </i>
    <i name="e_0_energy">     -9.82034728 </i>
   </energy>
  </scstep>
  <scstep>
   <time name="diag">    1.82    1.82</time>
   <time name="diis">    5.51    5.51</time>
   <time name="orth">    0.05    0.05</time>
   <time name="total">   60.19   60.20</time>
   <energy>
    <i name="e_fr_energy">     -9.82035602 </i>
    <i name="e_wo_entrp">     -9.82035602 </i>
    <i name="e_0_energy">     -9.82035602 </i>
   </energy>
  </scstep>
  <scstep>
   <time name="diag">    1.83    1.83</time>
   <time name="diis">    4.70    4.70</time>
   <time name="orth">    0.05    0.05</time>
   <time name="total">   59.36   59.37</time>
   <energy>
    <i name="e_fr_energy">     -9.82036582 </i>
    <i name="e_wo_entrp">     -9.82036582 </i>
    <i name="e_0_energy">     -9.82036582 </i>
   </energy>
  </scstep>
  <scstep>
   <time name="diag">    1.83    1.83</time>
   <time name="diis">    4.16    4.17</time>
   <time name="orth">    0.05    0.05</time>
   <time name="total">   58.84   58.85</time>
   <energy>
    <i name="e_fr_energy">     -9.82036977 </i>
    <i name="e_wo_entrp">     -9.82036977 </i>
    <i name="e_0_energy">     -9.82036977 </i>
   </energy>
  </scstep>
  <scstep>
   <time name="diag">    1.83    1.83</time>
   <time name="diis">    4.15    4.15</time>
   <time name="orth">    0.05    0.05</time>
   <time name="total">   58.53   58.56</time>
   <energy>
    <i name="e_fr_energy">     -9.82037254 </i>
    <i name="e_wo_entrp">     -9.82037254 </i>
    <i name="e_0_energy">     -9.82037254 </i>
   </energy>
  </scstep>
  <scstep>
   <time name="diag">    1.82    1.82</time>
   <time name="diis">    4.30    4.30</time>
   <time name="orth">    0.05    0.05</time>
   <time name="total">   58.86   58.87</time>
   <energy>
    <i name="e_fr_energy">     -9.82037683 </i>
    <i name="e_wo_entrp">     -9.82037683 </i>
    <i name="e_0_energy">     -9.82037683 </i>
   </energy>
  </scstep>
  <scstep>
   <time name="diag">    1.82    1.82</time>
   <time name="diis">    3.87    3.87</time>
   <time name="orth">    0.05    0.05</time>
   <time name="total">   58.65   58.67</time>
   <energy>
    <i name="e_fr_energy">     -9.82037885 </i>
    <i name="e_wo_entrp">     -9.82037885 </i>
    <i name="e_0_energy">     -9.82037885 </i>
   </energy>
  </scstep>
  <scstep>
   <time name="diag">    1.80    1.80</time>
   <time name="diis">    4.16    4.16</time>
   <time name="orth">    0.05    0.05</time>
   <time name="total">   58.75   58.76</time>
   <energy>
    <i name="e_fr_energy">     -9.82038297 </i>
    <i name="e_wo_entrp">     -9.82038297 </i>
    <i name="e_0_energy">     -9.82038297 </i>
   </energy>
  </scstep>
  <scstep>
   <time name="diag">    1.80    1.81</time>
   <time name="diis">    3.90    3.90</time>
   <time name="orth">    0.05    0.05</time>
   <time name="total">   54.54   54.57</time>
   <energy>
    <i name="alphaZ">      0.02383034 </i>
    <i name="ewald">    317.57144444 </i>
    <i name="hartreedc">  -1050.64846771 </i>
    <i name="XCdc">     55.50573266 </i>
    <i name="pawpsdc">    570.84761108 </i>
    <i name="pawaedc">   -574.64679642 </i>
    <i name="eentropy">      0.00000000 </i>
    <i name="bandstr">   -194.29800635 </i>
    <i name="atom">    865.82426828 </i>
    <i name="e_fr_energy">     -9.82038368 </i>
    <i name="e_wo_entrp">     -9.82038368 </i>
    <i name="e_0_energy">     -9.82038368 </i>
   </energy>
  </scstep>
  <structure>
   <crystal>
    <varray name="basis" >
     <v>      28.00000000       0.00000000       0.00000000 </v>
     <v>       0.00000000      28.00000000       0.00000000 </v>
     <v>       0.00000000       0.00000000      29.50000000 </v>
    </varray>
    <i name="volume">  23128.00000000 </i>
    <varray name="rec_basis" >
     <v>       0.03571429       0.00000000       0.00000000 </v>
     <v>       0.00000000       0.03571429       0.00000000 </v>
     <v>       0.00000000       0.00000000       0.03389831 </v>
    </varray>
   </crystal>
   <varray name="positions" >
    <v>       0.50000000       0.50000000       0.47402845 </v>
    <v>       0.50000000       0.50000000       0.51580206 </v>
   </varray>
  </structure>
  <varray name="forces" >
   <v>       0.00000000       0.00000000      -0.23296456 </v>
   <v>       0.00000000       0.00000000       0.23296456 </v>
  </varray>
  <varray name="stress" >
   <v>      -0.11014781       0.00000000       0.00000000 </v>
   <v>       0.00000000      -0.11014781       0.00000000 </v>
   <v>       0.00000000       0.00000000      -0.06205131 </v>
  </varray>
  <energy>
   <i name="e_fr_energy">     -9.82038368 </i>
   <i name="e_wo_entrp">     -9.82038368 </i>
   <i name="e_0_energy">      0.00000000 </i>
  </energy>
  <time name="totalsc">  839.33  839.63</time>
 </calculation>
 <calculation>
  <scstep>
   <time name="dav">    9.38    9.38</time>
   <time name="total">   62.05   62.05</time>
   <energy>
    <i name="alphaZ">      0.02383034 </i>
    <i name="ewald">    316.43616301 </i>
    <i name="hartreedc">  -1049.81357856 </i>
    <i name="XCdc">     55.49121632 </i>
    <i name="pawpsdc">    570.84792872 </i>
    <i name="pawaedc">   -574.64711869 </i>
    <i name="eentropy">      0.00000000 </i>
    <i name="bandstr">   -193.98344442 </i>
    <i name="atom">    865.82426828 </i>
    <i name="e_fr_energy">     -9.82073501 </i>
    <i name="e_wo_entrp">     -9.82073501 </i>
    <i name="e_0_energy">     -9.82073501 </i>
   </energy>
  </scstep>
  <scstep>
   <time name="diag">    1.79    1.79</time>
   <time name="diis">    5.70    5.70</time>
   <time name="orth">    0.05    0.05</time>
   <time name="total">   60.26   60.32</time>
   <energy>
    <i name="e_fr_energy">     -9.82075982 </i>
    <i name="e_wo_entrp">     -9.82075982 </i>
    <i name="e_0_energy">     -9.82075982 </i>
   </energy>
  </scstep>
  <scstep>
   <time name="diag">    1.79    1.79</time>
   <time name="diis">    5.64    5.64</time>
   <time name="orth">    0.05    0.05</time>
   <time name="total">   60.08   60.09</time>
   <energy>
    <i name="e_fr_energy">     -9.82076989 </i>
    <i name="e_wo_entrp">     -9.82076989 </i>
    <i name="e_0_energy">     -9.82076989 </i>
   </energy>
  </scstep>
  <scstep>
   <time name="diag">    1.80    1.80</time>
   <time name="diis">    5.68    5.68</time>
   <time name="orth">    0.05    0.05</time>
   <time name="total">   60.35   60.37</time>
   <energy>
    <i name="e_fr_energy">     -9.82077328 </i>
    <i name="e_wo_entrp">     -9.82077328 </i>
    <i name="e_0_energy">     -9.82077328 </i>
   </energy>
  </scstep>
  <scstep>
   <time name="diag">    1.80    1.80</time>
   <time name="diis">    4.49    4.49</time>
   <time name="orth">    0.05    0.05</time>
   <time name="total">   55.21   55.23</time>
   <energy>
    <i name="alphaZ">      0.02383034 </i>
    <i name="ewald">    316.43616301 </i>
    <i name="hartreedc">  -1049.65449444 </i>
    <i name="XCdc">     55.48117349 </i>
    <i name="pawpsdc">    569.85343554 </i>
    <i name="pawaedc">   -573.64792306 </i>
    <i name="eentropy">      0.00000000 </i>
    <i name="bandstr">   -194.13722606 </i>
    <i name="atom">    865.82426828 </i>
    <i name="e_fr_energy">     -9.82077290 </i>
    <i name="e_wo_entrp">     -9.82077290 </i>
    <i name="e_0_energy">     -9.82077290 </i>
   </energy>
  </scstep>
  <structure>
   <crystal>
    <varray name="basis" >
     <v>      28.00000000       0.00000000       0.00000000 </v>
     <v>       0.00000000      28.00000000       0.00000000 </v>
     <v>       0.00000000       0.00000000      29.50000000 </v>
    </varray>
    <i name="volume">  23128.00000000 </i>
    <varray name="rec_basis" >
     <v>       0.03571429       0.00000000       0.00000000 </v>
     <v>       0.00000000       0.03571429       0.00000000 </v>
     <v>       0.00000000       0.00000000       0.03389831 </v>
    </varray>
   </crystal>
   <varray name="positions" >
    <v>       0.50000000       0.50000000       0.47397191 </v>
    <v>       0.50000000       0.50000000       0.51585859 </v>
   </varray>
  </structure>
  <varray name="forces" >
   <v>       0.00000000       0.00000000       0.00907564 </v>
   <v>       0.00000000       0.00000000      -0.00907564 </v>
  </varray>
  <varray name="stress" >
   <v>      -0.11003529       0.00000000       0.00000000 </v>
   <v>       0.00000000      -0.11003529       0.00000000 </v>
   <v>       0.00000000       0.00000000      -0.08207671 </v>
  </varray>
  <energy>
   <i name="e_fr_energy">     -9.82077290 </i>
   <i name="e_wo_entrp">     -9.82077290 </i>
   <i name="e_0_energy">      0.00000000 </i>
  </energy>
  <time name="totalsc">  364.69  364.84</time>
  <eigenvalues>
   <array>
    <dimension dim="1">band</dimension>
    <dimension dim="2">kpoint</dimension>
    <dimension dim="3">spin</dimension>
    <field>eigene</field>
    <field>occ</field>
    <set>
     <set comment="spin 1">
      <set comment="kpoint 1">
       <r>  -32.6181    1.0000 </r>
       <r>  -20.7841    1.0000 </r>
       <r>  -13.6198    1.0000 </r>
       <r>  -13.3989    1.0000 </r>
       <r>  -13.3989    1.0000 </r>
       <r>   -7.1094    1.0000 </r>
       <r>   -7.1094    1.0000 </r>
       <r>   -0.1673    0.0000 </r>
       <r>    0.0114    0.0000 </r>
       <r>    0.1388    0.0000 </r>
       <r>    0.1804    0.0000 </r>
      </set>
     </set>
     <set comment="spin 2">
      <set comment="kpoint 1">
       <r>  -31.3389    1.0000 </r>
       <r>  -18.9983    1.0000 </r>
       <r>  -12.5782    1.0000 </r>
       <r>  -11.5917    1.0000 </r>
       <r>  -11.5917    1.0000 </r>
       <r>   -4.9076    0.0000 </r>
       <r>   -4.9076    0.0000 </r>
       <r>   -0.0567    0.0000 </r>
       <r>    0.0541    0.0000 </r>
       <r>    0.1705    0.0000 </r>
       <r>    0.1953    0.0000 </r>
      </set>
     </set>
    </set>
   </array>
  </eigenvalues>
  <separator name="orbital magnetization" >
   <v name="MAGDIPOLOUT">      0.00000000      0.00000000      0.00000000</v>
  </separator>
 </calculation>
 <structure name="finalpos" >
  <crystal>
   <varray name="basis" >
    <v>      28.00000000       0.00000000       0.00000000 </v>
    <v>       0.00000000      28.00000000       0.00000000 </v>
    <v>       0.00000000       0.00000000      29.50000000 </v>
   </varray>
   <i name="volume">  23128.00000000 </i>
   <varray name="rec_basis" >
    <v>       0.03571429       0.00000000       0.00000000 </v>
    <v>       0.00000000       0.03571429       0.00000000 </v>
    <v>       0.00000000       0.00000000       0.03389831 </v>
   </varray>
  </crystal>
  <varray name="positions" >
   <v>       0.50000000       0.50000000       0.47397191 </v>
   <v>       0.50000000       0.50000000       0.51585859 </v>
  </varray>
 </structure>
</modeling>
