unknown system                          
            1
    28.000000    0.000000    0.000000
     0.000000   28.000000    0.000000
     0.000000    0.000000   29.500000
   O 
   2
Direct configuration=     1
   0.50000000  0.50000000  0.47457627
   0.50000000  0.50000000  0.51525424
Direct configuration=     2
   0.50000000  0.50000000  0.47268638
   0.50000000  0.50000000  0.51714413
Direct configuration=     3
   0.50000000  0.50000000  0.47380111
   0.50000000  0.50000000  0.51602940
Direct configuration=     4
   0.50000000  0.50000000  0.47402845
   0.50000000  0.50000000  0.51580206
Direct configuration=     5
   0.50000000  0.50000000  0.47397191
   0.50000000  0.50000000  0.51585859
