    2    2 1000    2
  0.1156400E+05  0.2800000E-08  0.2800000E-08  0.2950000E-08  0.2000000E-15
   1.0000000000000000E-004
  CAR 
 unknown system                          
   12    1   11

  0.1262379E-14  0.1262379E-14  0.1262379E-14  0.1000000E+01
   1      -32.622996    -31.343496
   2      -20.781807    -18.996221
   3      -13.620162    -12.578375
   4      -13.400531    -11.593290
   5      -13.400531    -11.593290
   6       -7.107308     -4.905544
   7       -7.107308     -4.905544
   8       -0.161900     -0.050667
   9        0.048657      0.053075
  10        0.193701      0.165170
  11        0.220046      0.186678
