 vasp.5.3.2 13Sep12 (build Mar 13 2013 15:03:29) complex                         
 executed on             LinuxPgi date 2016.05.04  13:52:05
 running on    8 total cores
 distrk:  each k-point on    8 cores,    1 groups
 distr:  one band on NCORES_PER_BAND=   8 cores,    1 groups


--------------------------------------------------------------------------------------------------------


 INCAR:
 POTCAR:   PAW_GGA O 05Jan2001                    

 ----------------------------------------------------------------------------- 
|                                                                             |
|           W    W    AA    RRRRR   N    N  II  N    N   GGGG   !!!           |
|           W    W   A  A   R    R  NN   N  II  NN   N  G    G  !!!           |
|           W    W  A    A  R    R  N N  N  II  N N  N  G       !!!           |
|           W WW W  AAAAAA  RRRRR   N  N N  II  N  N N  G  GGG   !            |
|           WW  WW  A    A  R   R   N   NN  II  N   NN  G    G                |
|           W    W  A    A  R    R  N    N  II  N    N   GGGG   !!!           |
|                                                                             |
|      For optimal performance we recommend that you set                      |
|        NPAR = 4 - approx SQRT( number of cores)                             |
|      (number of cores/NPAR must be integer)                                 |
|      This setting will greatly improve the performance of VASP for DFT.     |
|      The default NPAR=number of cores might be grossly inefficient          |
|      on modern multi-core architectures or massively parallel machines.     |
|      Do your own testing.                                                   |
|      Unfortunately you need to use the default for hybrid, GW and RPA       |
|      calculations.                                                          |
|                                                                             |
 ----------------------------------------------------------------------------- 

 POTCAR:   PAW_GGA O 05Jan2001                    
  local pseudopotential read in
  atomic valenz-charges read in
  non local Contribution for L=            0  read in
    real space projection operators read in
  non local Contribution for L=            0  read in
    real space projection operators read in
  non local Contribution for L=            1  read in
    real space projection operators read in
  non local Contribution for L=            1  read in
    real space projection operators read in
    PAW grid and wavefunctions read in

   number of l-projection  operators is LMAX  =            4
   number of lm-projection operators is LMMAX =            8


 ----------------------------------------------------------------------------- 
|                                                                             |
|  ADVICE TO THIS USER RUNNING 'VASP/VAMP'   (HEAR YOUR MASTER'S VOICE ...):  |
|                                                                             |
|      You have a (more or less) 'small supercell' and for smaller cells      |
|      it is recommended  to use the reciprocal-space projection scheme!      |
|      The real space optimization is not  efficient for small cells and it   |
|      is also less accurate ...                                              |
|      Therefore set LREAL=.FALSE. in the  INCAR file                         |
|                                                                             |
 ----------------------------------------------------------------------------- 

 Optimization of the real space projectors (new method)

 maximal supplied QI-value         = 24.76
 optimisation between [QCUT,QGAM] = [ 10.15, 20.30] = [ 28.85,115.39] Ry 
 Optimized for a Real-space Cutoff    1.30 Angstroem

   l    n(q)    QCUT    max X(q) W(low)/X(q) W(high)/X(q)  e(spline) 
   0      8    10.150     4.138    0.54E-04    0.57E-04    0.73E-07
   0      8    10.150     8.500    0.47E-03    0.69E-03    0.22E-06
   1      7    10.150     2.482    0.11E-03    0.90E-04    0.31E-07
   1      7    10.150     3.878    0.45E-03    0.49E-03    0.15E-06
 PAW_GGA O 05Jan2001                    :
 energy of atom  1       EATOM= -433.0277
 kinetic energy error for atom=    0.1156 (will be added to EATOM!!)


 POSCAR:  O                                      
  positions in cartesian coordinates
  No initial velocities read in
 exchange correlation table for  LEXCH =        7
   RHO(1)=    0.500       N(1)  =     2000
   RHO(2)=  100.500       N(2)  =     4000

 VTST: version 3.0, (09/19/12)

 CHAIN: initializing optimizer
 
 OPT: Using VASP QUASI-newton optimizer
 CHAIN: Read ICHAIN             0

 POSCAR:  O                                      
  positions in cartesian coordinates
  No initial velocities read in



--------------------------------------------------------------------------------------------------------


 ion  position               nearest neighbor table
   1  0.500  0.500  0.475-   2 1.65
   2  0.500  0.500  0.531-   1 1.65

  LATTYP: Found a simple tetragonal cell.
 ALAT       =    28.0000000000
 C/A-ratio  =     1.0535714286
  
  Lattice vectors:
  
 A1 = (  28.0000000000,   0.0000000000,   0.0000000000)
 A2 = (   0.0000000000,  28.0000000000,   0.0000000000)
 A3 = (   0.0000000000,   0.0000000000,  29.5000000000)


Analysis of symmetry for initial positions (statically):
=====================================================================
 Subroutine PRICEL returns:
 Original cell was already a primitive cell.
 

 Routine SETGRP: Setting up the symmetry group for a 
 simple tetragonal supercell.


 Subroutine GETGRP returns: Found 16 space group operations
 (whereof  8 operations were pure point group operations)
 out of a pool of 16 trial point group operations.


The static configuration has the point symmetry C_4v.
 The point group associated with its full space group is D_4h.


Analysis of symmetry for dynamics (positions and initial velocities):
=====================================================================
 Subroutine PRICEL returns:
 Original cell was already a primitive cell.
 

 Routine SETGRP: Setting up the symmetry group for a 
 simple tetragonal supercell.


 Subroutine GETGRP returns: Found 16 space group operations
 (whereof  8 operations were pure point group operations)
 out of a pool of 16 trial point group operations.


The dynamic configuration has the point symmetry C_4v.
 The point group associated with its full space group is D_4h.


Analysis of magnetic symmetry:
=====================================================================

 Subroutine MAGSYM returns: Found 16 space group operations
 (whereof  8 operations were pure point group operations)
 out of a pool of 16 trial space group operations
 (whereof  8 operations were pure point group operations)
 and found also     1 'primitive' translations


The magnetic configuration has the point symmetry C_4v.
 The point group associated with its full space group is D_4h.


 KPOINTS: KPOINTS created by Atomic Simulation Env

Automatic generation of k-mesh.
Space group operators:
 irot       det(A)        alpha          n_x          n_y          n_z        tau_x        tau_y        tau_z
    1     1.000000     0.000000     1.000000     0.000000     0.000000     0.000000     0.000000     0.000000
    2     1.000000    90.000000     0.000000     0.000000    -1.000000     0.000000     0.000000     0.000000
    3     1.000000   179.999999     0.000000     0.000000     1.000000     0.000000     0.000000     0.000000
    4     1.000000    90.000000     0.000000     0.000000     1.000000     0.000000     0.000000     0.000000
    5    -1.000000   180.000000     0.000000     1.000000     0.000000     0.000000     0.000000     0.000000
    6    -1.000000   180.000000     0.707107     0.707107     0.000000     0.000000     0.000000     0.000000
    7    -1.000000   180.000000     1.000000     0.000000     0.000000     0.000000     0.000000     0.000000
    8    -1.000000   180.000000     0.707107    -0.707107     0.000000     0.000000     0.000000     0.000000
    9    -1.000000     0.000000     1.000000     0.000000     0.000000     0.000000     0.000000     0.005085
   10    -1.000000    90.000000     0.000000     0.000000    -1.000000     0.000000     0.000000     0.005085
   11    -1.000000   179.999999     0.000000     0.000000     1.000000     0.000000     0.000000     0.005085
   12    -1.000000    90.000000     0.000000     0.000000     1.000000     0.000000     0.000000     0.005085
   13     1.000000   180.000000     0.000000     1.000000     0.000000     0.000000     0.000000     0.005085
   14     1.000000   180.000000     0.707107     0.707107     0.000000     0.000000     0.000000     0.005085
   15     1.000000   180.000000     1.000000     0.000000     0.000000     0.000000     0.000000     0.005085
   16     1.000000   180.000000     0.707107    -0.707107     0.000000     0.000000     0.000000     0.005085
 
 Subroutine IBZKPT returns following result:
 ===========================================
 
 Found      1 irreducible k-points:
 
 Following reciprocal coordinates:
            Coordinates               Weight
  0.000000  0.000000  0.000000      1.000000
 
 Following cartesian coordinates:
            Coordinates               Weight
  0.000000  0.000000  0.000000      1.000000
 


--------------------------------------------------------------------------------------------------------




 Dimension of arrays:
   k-points           NKPTS =      1   k-points in BZ     NKDIM =      1   number of bands    NBANDS=     11
   number of dos      NEDOS =    301   number of ions     NIONS =      2
   non local maximal  LDIM  =      4   non local SUM 2l+1 LMDIM =      8
   total plane-waves  NPLWV = ******
   max r-space proj   IRMAX =   1176   max aug-charges    IRDMAX=   1783
   dimension x,y,z NGX =   140 NGY =  140 NGZ =  144
   dimension x,y,z NGXF=   280 NGYF=  280 NGZF=  288
   support grid    NGXF=   280 NGYF=  280 NGZF=  288
   ions per type =               2
 NGX,Y,Z   is equivalent  to a cutoff of   8.31,  8.31,  8.12 a.u.
 NGXF,Y,Z  is equivalent  to a cutoff of  16.62, 16.62, 16.23 a.u.


 I would recommend the setting:
   dimension x,y,z NGX =   137 NGY =  137 NGZ =  144
 SYSTEM =  unknown system                          
 POSCAR =   O                                      

 Startparameter for this run:
   NWRITE =      1    write-flag & timer
   PREC   = normal    normal or accurate (medium, high low for compatibility)
   ISTART =      0    job   : 0-new  1-cont  2-samecut
   ICHARG =      2    charge: 1-file 2-atom 10-const
   ISPIN  =      2    spin polarized calculation?
   LNONCOLLINEAR =      F non collinear calculations
   LSORBIT =      F    spin-orbit coupling
   INIWAV =      1    electr: 0-lowe 1-rand  2-diag
   LASPH  =      F    aspherical Exc in radial PAW
   METAGGA=      F    non-selfconsistent MetaGGA calc.

 Electronic Relaxation 1
   ENCUT  =  400.0 eV  29.40 Ry    5.42 a.u.  45.66 45.66 48.11*2*pi/ulx,y,z
   ENINI  =  400.0     initial cutoff
   ENAUG  =  605.4 eV  augmentation charge cutoff
   NELM   =    400;   NELMIN=  2; NELMDL=-10     # of ELM steps 
   EDIFF  = 0.1E-05   stopping-criterion for ELM
   LREAL  =      T    real-space projection
   NLSPLINE    = F    spline interpolate recip. space projectors
   LCOMPAT=      F    compatible to vasp.4.4
   GGA_COMPAT  = T    GGA compatible to vasp.4.4-vasp.4.6
   LMAXPAW     = -100 max onsite density
   LMAXMIX     =    2 max onsite mixed and CHGCAR
   VOSKOWN=      1    Vosko Wilk Nusair interpolation
   ROPT   =   -0.00050
 Ionic relaxation
   EDIFFG = -.4E-01   stopping-criterion for IOM
   NSW    =   1000    number of steps for IOM
   NBLOCK =      1;   KBLOCK =   1000    inner block; outer block 
   IBRION =      1    ionic relax: 0-MD 1-quasi-New 2-CG
   NFREE  =      2    steps in history (QN), initial steepest desc. (CG)
   ISIF   =      2    stress and relaxation
   IWAVPR =     11    prediction:  0-non 1-charg 2-wave 3-comb
   ISYM   =      2    0-nonsym 1-usesym 2-fastsym
   LCORR  =      T    Harris-Foulkes like correction to forces

   POTIM  = 0.2000    time-step for ionic-motion
   TEIN   =    0.0    initial temperature
   TEBEG  =    0.0;   TEEND  =   0.0 temperature during run
   SMASS  =  -3.00    Nose mass-parameter (am)
   estimated Nose-frequenzy (Omega)   =  0.10E-29 period in steps =****** mass=  -0.179E-25a.u.
   SCALEE = 1.0000    scale energy and forces
   NPACO  =    256;   APACO  = 16.0  distance and # of slots for P.C.
   PSTRESS=    0.0 pullay stress

  Mass of Ions in am
   POMASS =  16.00
  Ionic Valenz
   ZVAL   =   6.00
  Atomic Wigner-Seitz radii
   RWIGS  =  -1.00
  virtual crystal weights 
   VCA    =   1.00
   NELECT =      12.0000    total number of electrons
   NUPDOWN=      -1.0000    fix difference up-down

 DOS related values:
   EMIN   =  10.00;   EMAX   =-10.00  energy-range for DOS
   EFERMI =   0.00
   ISMEAR =     1;   SIGMA  =   0.01  broadening in eV -4-tet -1-fermi 0-gaus

 Electronic relaxation 2 (details)
   IALGO  =     68    algorithm
   LDIAG  =      T    sub-space diagonalisation (order eigenvalues)
   LSUBROT=      T    optimize rotation matrix (better conditioning)
   TURBO    =      0    0=normal 1=particle mesh
   IRESTART =      0    0=no restart 2=restart with 2 vectors
   NREBOOT  =      0    no. of reboots
   NMIN     =      0    reboot dimension
   EREF     =   0.00    reference energy to select bands
   IMIX   =      4    mixing-type and parameters
     AMIX     =   0.40;   BMIX     =  1.00
     AMIX_MAG =   1.60;   BMIX_MAG =  1.00
     AMIN     =   0.10
     WC   =   100.;   INIMIX=   1;  MIXPRE=   1;  MAXMIX= -45

 Intra band minimization:
   WEIMIN = 0.0010     energy-eigenvalue tresh-hold
   EBREAK =  0.23E-07  absolut break condition
   DEPER  =   0.30     relativ break condition  

   TIME   =   0.40     timestep for ELM

  volume/ion in A,a.u.               =   11564.00     78037.72
  Fermi-wavevector in a.u.,A,eV,Ry     =   0.131550  0.248593  0.235453  0.017305
  Thomas-Fermi vector in A             =   0.773390

 Write flags
   LWAVE  =      F    write WAVECAR
   LCHARG =      F    write CHGCAR
   LVTOT  =      F    write LOCPOT, total local potential
   LVHAR  =      F    write LOCPOT, Hartree potential only
   LELF   =      F    write electronic localiz. function (ELF)
   LORBIT =      0    0 simple, 1 ext, 2 COOP (PROOUT)


 Dipole corrections
   LMONO  =      F    monopole corrections only (constant potential shift)
   LDIPOL =      F    correct potential (dipole corrections)
   IDIPOL =      0    1-x, 2-y, 3-z, 4-all directions 
   EPSILON=  1.0000000 bulk dielectric constant

 Exchange correlation treatment:
   GGA     =    --    GGA type
   LEXCH   =     7    internal setting for exchange type
   VOSKOWN=      1    Vosko Wilk Nusair interpolation
   LHFCALC =     F    Hartree Fock is set to
   LHFONE  =     F    Hartree Fock one center treatment
   AEXX    =    0.0000 exact exchange contribution

 Linear response parameters
   LEPSILON=     F    determine dielectric tensor
   LRPA    =     F    only Hartree local field effects (RPA)
   LNABLA  =     F    use nabla operator in PAW spheres
   LVEL    =     F    velocity operator in full k-point grid
   LINTERFAST=   F  fast interpolation
   KINTER  =     0    interpolate to denser k-point grid
   CSHIFT  =0.1000    complex shift for real part using Kramers Kronig
   OMEGAMAX=  -1.0    maximum frequency
   DEG_THRESHOLD= 0.2000000E-02 threshold for treating states as degnerate
   RTIME   =    0.100 relaxation time in fs

 Orbital magnetization related:
   ORBITALMAG=     F  switch on orbital magnetization
   LCHIMAG   =     F  perturbation theory with respect to B field
   DQ        =  0.001000  dq finite difference perturbation B field



--------------------------------------------------------------------------------------------------------


 quasi-Newton-method for relaxation of ions
 charge density and potential will be updated during run
 spin polarized calculation
 RMM-DIIS sequential band-by-band and
  variant of blocked Davidson during initial phase
 perform sub-space diagonalisation
    before iterative eigenvector-optimisation
 modified Broyden-mixing scheme, WC =      100.0
 initial mixing is a Kerker type mixing with AMIX =  0.4000 and BMIX =      1.0000
 Hartree-type preconditioning will be used
 using additional bands             5
 real space projection scheme for non local part
 calculate Harris-corrections to forces 
   (improved forces if not selfconsistent)
 use gradient corrections 
 use of overlap-Matrix (Vanderbilt PP)
 Methfessel and Paxton  Order N= 1 SIGMA  =   0.01


--------------------------------------------------------------------------------------------------------


  energy-cutoff  :      400.00
  volume of cell :    23128.00
      direct lattice vectors                 reciprocal lattice vectors
    28.000000000  0.000000000  0.000000000     0.035714286  0.000000000  0.000000000
     0.000000000 28.000000000  0.000000000     0.000000000  0.035714286  0.000000000
     0.000000000  0.000000000 29.500000000     0.000000000  0.000000000  0.033898305

  length of vectors
    28.000000000 28.000000000 29.500000000     0.035714286  0.035714286  0.033898305



 k-points in units of 2pi/SCALE and weight: KPOINTS created by Atomic Simulation Env
   0.00000000  0.00000000  0.00000000       1.000

 k-points in reciprocal lattice and weights: KPOINTS created by Atomic Simulation Env
   0.00000000  0.00000000  0.00000000       1.000

 position of ions in fractional coordinates (direct lattice) 
   0.50000000  0.50000000  0.47457627
   0.50000000  0.50000000  0.53050847

 position of ions in cartesian coordinates  (Angst):
  14.00000000 14.00000000 14.00000000
  14.00000000 14.00000000 15.65000000



--------------------------------------------------------------------------------------------------------


 k-point  1 :   0.0000 0.0000 0.0000  plane waves:  420237

 maximum and minimum number of plane-waves per node :     52536    52519

 maximum number of plane-waves:    420237
 maximum index in each direction: 
   IXMAX=   45   IYMAX=   45   IZMAX=   48
   IXMIN=  -45   IYMIN=  -45   IZMIN=  -48

 WARNING: aliasing errors must be expected set NGX to 182 to avoid them
 WARNING: aliasing errors must be expected set NGY to 182 to avoid them
 WARNING: aliasing errors must be expected set NGZ to 194 to avoid them
 aliasing errors are usually negligible using standard VASP settings
 and one can safely disregard these warnings

 real space projection operators:
  total allocation   :        138.75 KBytes
  max/ min on nodes  :         20.00         15.75


 parallel 3D FFT for wavefunctions:
    minimum data exchange during FFTs selected (reduces bandwidth)
 parallel 3D FFT for charge:
    minimum data exchange during FFTs selected (reduces bandwidth)


 total amount of memory used by VASP on root node   388404. kBytes
========================================================================

   base      :      30000. kBytes
   nonlr-proj:         59. kBytes
   fftplans  :     106425. kBytes
   grid      :     233421. kBytes
   one-center:          6. kBytes
   wavefun   :      18493. kBytes

 Broyden mixing: mesh for mixing (old mesh)
   NGX = 91   NGY = 91   NGZ = 97
  (NGX  =280   NGY  =280   NGZ  =288)
  gives a total of 803257 points

 initial charge density was supplied:
 charge density of overlapping atoms calculated
 number of electron      12.0000000 magnetization       2.0000000
 keeping initial charge density in first step


--------------------------------------------------------------------------------------------------------


 Maximum index for non-local projection operator           132
 Maximum index for augmentation-charges           220 (set IRDMAX)


--------------------------------------------------------------------------------------------------------


 First call to EWALD:  gamma=   0.062
 Maximum number of real-space cells 3x 3x 3
 Maximum number of reciprocal cells 3x 3x 3

 FEWALD executed in parallel
    FEWALD:  cpu time    0.00: real time    0.00


----------------------------------------- Iteration    1(   1)  ---------------------------------------


    POTLOK:  cpu time   47.09: real time   47.10
    SETDIJ:  cpu time    0.06: real time    0.06
     EDDAV:  cpu time   11.36: real time   11.36
       DOS:  cpu time    0.00: real time    0.00
    --------------------------------------------
      LOOP:  cpu time   58.51: real time   58.52

 eigenvalue-minimisations  :    76
 total energy-change (2. order) : 0.1106504E+03  (-0.1362416E+03)
 number of electron      12.0000000 magnetization       2.0000000
 augmentation part       12.0000000 magnetization       2.0000000

 Free energy of the ion-electron system (eV)
  ---------------------------------------------------
  alpha Z        PSCENC =         0.02383034
  Ewald energy   TEWEN  =       211.13344624
  -1/2 Hartree   DENC   =      -953.08528720
  -exchange  EXHF       =         0.00000000
  -V(xc)+E(xc)   XCENC  =        53.38519739
  PAW double counting   =       492.37991565     -496.26382662
  entropy T*S    EENTRO =         0.00060533
  eigenvalues    EBANDS =       -62.74775707
  atomic energy  EATOM  =       865.82426828
  ---------------------------------------------------
  free energy    TOTEN  =       110.65039232 eV

  energy without entropy =      110.64978699  energy(sigma->0) =      110.65019054


--------------------------------------------------------------------------------------------------------




----------------------------------------- Iteration    1(   2)  ---------------------------------------


     EDDAV:  cpu time   12.68: real time   12.68
       DOS:  cpu time    0.00: real time    0.00
    --------------------------------------------
      LOOP:  cpu time   12.68: real time   12.70

 eigenvalue-minimisations  :    82
 total energy-change (2. order) :-0.6742406E+02  (-0.6733422E+02)
 number of electron      12.0000000 magnetization       2.0000000
 augmentation part       12.0000000 magnetization       2.0000000

 Free energy of the ion-electron system (eV)
  ---------------------------------------------------
  alpha Z        PSCENC =         0.02383034
  Ewald energy   TEWEN  =       211.13344624
  -1/2 Hartree   DENC   =      -953.08528720
  -exchange  EXHF       =         0.00000000
  -V(xc)+E(xc)   XCENC  =        53.38519739
  PAW double counting   =       492.37991565     -496.26382662
  entropy T*S    EENTRO =         0.00028990
  eigenvalues    EBANDS =      -130.17149958
  atomic energy  EATOM  =       865.82426828
  ---------------------------------------------------
  free energy    TOTEN  =        43.22633438 eV

  energy without entropy =       43.22604448  energy(sigma->0) =       43.22623775


--------------------------------------------------------------------------------------------------------




----------------------------------------- Iteration    1(   3)  ---------------------------------------


     EDDAV:  cpu time    9.16: real time    9.17
       DOS:  cpu time    0.00: real time    0.00
    --------------------------------------------
      LOOP:  cpu time    9.16: real time    9.17

 eigenvalue-minimisations  :    56
 total energy-change (2. order) :-0.3229102E+02  (-0.3022575E+02)
 number of electron      12.0000000 magnetization       2.0000000
 augmentation part       12.0000000 magnetization       2.0000000

 Free energy of the ion-electron system (eV)
  ---------------------------------------------------
  alpha Z        PSCENC =         0.02383034
  Ewald energy   TEWEN  =       211.13344624
  -1/2 Hartree   DENC   =      -953.08528720
  -exchange  EXHF       =         0.00000000
  -V(xc)+E(xc)   XCENC  =        53.38519739
  PAW double counting   =       492.37991565     -496.26382662
  entropy T*S    EENTRO =         0.00000000
  eigenvalues    EBANDS =      -162.46222771
  atomic energy  EATOM  =       865.82426828
  ---------------------------------------------------
  free energy    TOTEN  =        10.93531636 eV

  energy without entropy =       10.93531636  energy(sigma->0) =       10.93531636


--------------------------------------------------------------------------------------------------------




----------------------------------------- Iteration    1(   4)  ---------------------------------------


     EDDAV:  cpu time   10.68: real time   10.68
       DOS:  cpu time    0.00: real time    0.00
    --------------------------------------------
      LOOP:  cpu time   10.68: real time   10.74

 eigenvalue-minimisations  :    72
 total energy-change (2. order) :-0.1446029E+02  (-0.1029094E+02)
 number of electron      12.0000000 magnetization       2.0000000
 augmentation part       12.0000000 magnetization       2.0000000

 Free energy of the ion-electron system (eV)
  ---------------------------------------------------
  alpha Z        PSCENC =         0.02383034
  Ewald energy   TEWEN  =       211.13344624
  -1/2 Hartree   DENC   =      -953.08528720
  -exchange  EXHF       =         0.00000000
  -V(xc)+E(xc)   XCENC  =        53.38519739
  PAW double counting   =       492.37991565     -496.26382662
  entropy T*S    EENTRO =         0.00028990
  eigenvalues    EBANDS =      -176.92280559
  atomic energy  EATOM  =       865.82426828
  ---------------------------------------------------
  free energy    TOTEN  =        -3.52497163 eV

  energy without entropy =       -3.52526152  energy(sigma->0) =       -3.52506826


--------------------------------------------------------------------------------------------------------




----------------------------------------- Iteration    1(   5)  ---------------------------------------


     EDDAV:  cpu time    8.91: real time    8.91
       DOS:  cpu time    0.00: real time    0.00
    --------------------------------------------
      LOOP:  cpu time    8.91: real time    8.91

 eigenvalue-minimisations  :    58
 total energy-change (2. order) :-0.3545295E+01  (-0.3544854E+01)
 number of electron      12.0000000 magnetization       2.0000000
 augmentation part       12.0000000 magnetization       2.0000000

 Free energy of the ion-electron system (eV)
  ---------------------------------------------------
  alpha Z        PSCENC =         0.02383034
  Ewald energy   TEWEN  =       211.13344624
  -1/2 Hartree   DENC   =      -953.08528720
  -exchange  EXHF       =         0.00000000
  -V(xc)+E(xc)   XCENC  =        53.38519739
  PAW double counting   =       492.37991565     -496.26382662
  entropy T*S    EENTRO =         0.00000000
  eigenvalues    EBANDS =      -180.46781102
  atomic energy  EATOM  =       865.82426828
  ---------------------------------------------------
  free energy    TOTEN  =        -7.07026696 eV

  energy without entropy =       -7.07026696  energy(sigma->0) =       -7.07026696


--------------------------------------------------------------------------------------------------------




----------------------------------------- Iteration    1(   6)  ---------------------------------------


     EDDAV:  cpu time   10.64: real time   10.64
       DOS:  cpu time    0.00: real time    0.00
    --------------------------------------------
      LOOP:  cpu time   10.64: real time   10.65

 eigenvalue-minimisations  :    72
 total energy-change (2. order) :-0.3426706E-01  (-0.3484647E-01)
 number of electron      12.0000000 magnetization       2.0000000
 augmentation part       12.0000000 magnetization       2.0000000

 Free energy of the ion-electron system (eV)
  ---------------------------------------------------
  alpha Z        PSCENC =         0.02383034
  Ewald energy   TEWEN  =       211.13344624
  -1/2 Hartree   DENC   =      -953.08528720
  -exchange  EXHF       =         0.00000000
  -V(xc)+E(xc)   XCENC  =        53.38519739
  PAW double counting   =       492.37991565     -496.26382662
  entropy T*S    EENTRO =         0.00057984
  eigenvalues    EBANDS =      -180.50265792
  atomic energy  EATOM  =       865.82426828
  ---------------------------------------------------
  free energy    TOTEN  =        -7.10453402 eV

  energy without entropy =       -7.10511385  energy(sigma->0) =       -7.10472729


--------------------------------------------------------------------------------------------------------




----------------------------------------- Iteration    1(   7)  ---------------------------------------


     EDDAV:  cpu time   10.24: real time   10.24
       DOS:  cpu time    0.00: real time    0.00
    --------------------------------------------
      LOOP:  cpu time   10.24: real time   10.30

 eigenvalue-minimisations  :    69
 total energy-change (2. order) :-0.1191515E-03  (-0.1191052E-03)
 number of electron      12.0000000 magnetization       2.0000000
 augmentation part       12.0000000 magnetization       2.0000000

 Free energy of the ion-electron system (eV)
  ---------------------------------------------------
  alpha Z        PSCENC =         0.02383034
  Ewald energy   TEWEN  =       211.13344624
  -1/2 Hartree   DENC   =      -953.08528720
  -exchange  EXHF       =         0.00000000
  -V(xc)+E(xc)   XCENC  =        53.38519739
  PAW double counting   =       492.37991565     -496.26382662
  entropy T*S    EENTRO =         0.00057979
  eigenvalues    EBANDS =      -180.50277702
  atomic energy  EATOM  =       865.82426828
  ---------------------------------------------------
  free energy    TOTEN  =        -7.10465317 eV

  energy without entropy =       -7.10523296  energy(sigma->0) =       -7.10484643


--------------------------------------------------------------------------------------------------------




----------------------------------------- Iteration    1(   8)  ---------------------------------------


     EDDAV:  cpu time   11.63: real time   11.63
       DOS:  cpu time    0.00: real time    0.00
    --------------------------------------------
      LOOP:  cpu time   11.63: real time   11.63

 eigenvalue-minimisations  :    80
 total energy-change (2. order) :-0.1207186E-05  (-0.1208083E-05)
 number of electron      12.0000000 magnetization       2.0000000
 augmentation part       12.0000000 magnetization       2.0000000

 Free energy of the ion-electron system (eV)
  ---------------------------------------------------
  alpha Z        PSCENC =         0.02383034
  Ewald energy   TEWEN  =       211.13344624
  -1/2 Hartree   DENC   =      -953.08528720
  -exchange  EXHF       =         0.00000000
  -V(xc)+E(xc)   XCENC  =        53.38519739
  PAW double counting   =       492.37991565     -496.26382662
  entropy T*S    EENTRO =         0.00057979
  eigenvalues    EBANDS =      -180.50277823
  atomic energy  EATOM  =       865.82426828
  ---------------------------------------------------
  free energy    TOTEN  =        -7.10465437 eV

  energy without entropy =       -7.10523417  energy(sigma->0) =       -7.10484764


--------------------------------------------------------------------------------------------------------




----------------------------------------- Iteration    1(   9)  ---------------------------------------


     EDDAV:  cpu time    9.77: real time    9.77
       DOS:  cpu time    0.00: real time    0.00
    --------------------------------------------
      LOOP:  cpu time    9.77: real time    9.78

 eigenvalue-minimisations  :    61
 total energy-change (2. order) :-0.1725334E-07  (-0.1754320E-07)
 number of electron      12.0000000 magnetization       2.0000000
 augmentation part       12.0000000 magnetization       2.0000000

 Free energy of the ion-electron system (eV)
  ---------------------------------------------------
  alpha Z        PSCENC =         0.02383034
  Ewald energy   TEWEN  =       211.13344624
  -1/2 Hartree   DENC   =      -953.08528720
  -exchange  EXHF       =         0.00000000
  -V(xc)+E(xc)   XCENC  =        53.38519739
  PAW double counting   =       492.37991565     -496.26382662
  entropy T*S    EENTRO =         0.00057979
  eigenvalues    EBANDS =      -180.50277825
  atomic energy  EATOM  =       865.82426828
  ---------------------------------------------------
  free energy    TOTEN  =        -7.10465439 eV

  energy without entropy =       -7.10523418  energy(sigma->0) =       -7.10484766


--------------------------------------------------------------------------------------------------------




----------------------------------------- Iteration    1(  10)  ---------------------------------------


     EDDAV:  cpu time   12.59: real time   12.59
       DOS:  cpu time    0.00: real time    0.00
    CHARGE:  cpu time    3.07: real time    3.07
    MIXING:  cpu time    0.29: real time    0.29
    --------------------------------------------
      LOOP:  cpu time   15.95: real time   16.01

 eigenvalue-minimisations  :    80
 total energy-change (2. order) :-0.1162789E-08  (-0.2785594E-09)
 number of electron      12.0000127 magnetization       2.0000006
 augmentation part        1.0119624 magnetization       0.4712835

 Broyden mixing:
  rms(total) = 0.56142E+00    rms(broyden)= 0.54702E+00
  rms(prec ) = 0.55040E+00
  weight for this iteration     100.00

 Free energy of the ion-electron system (eV)
  ---------------------------------------------------
  alpha Z        PSCENC =         0.02383034
  Ewald energy   TEWEN  =       211.13344624
  -1/2 Hartree   DENC   =      -953.08528720
  -exchange  EXHF       =         0.00000000
  -V(xc)+E(xc)   XCENC  =        53.38519739
  PAW double counting   =       492.37991565     -496.26382662
  entropy T*S    EENTRO =         0.00057979
  eigenvalues    EBANDS =      -180.50277825
  atomic energy  EATOM  =       865.82426828
  ---------------------------------------------------
  free energy    TOTEN  =        -7.10465439 eV

  energy without entropy =       -7.10523418  energy(sigma->0) =       -7.10484766


--------------------------------------------------------------------------------------------------------




----------------------------------------- Iteration    1(  11)  ---------------------------------------


    POTLOK:  cpu time   47.67: real time   47.68
    SETDIJ:  cpu time    0.06: real time    0.06
    EDDIAG:  cpu time    1.60: real time    1.60
  RMM-DIIS:  cpu time    4.89: real time    4.89
    ORTHCH:  cpu time    0.05: real time    0.05
       DOS:  cpu time    0.00: real time    0.00
    CHARGE:  cpu time    2.98: real time    2.98
    MIXING:  cpu time    0.32: real time    0.32
    --------------------------------------------
      LOOP:  cpu time   57.57: real time   57.59

 eigenvalue-minimisations  :    44
 total energy-change (2. order) : 0.1453402E+00  (-0.6292755E-01)
 number of electron      12.0000128 magnetization       2.0000010
 augmentation part        1.0177285 magnetization       0.4874099

 Broyden mixing:
  rms(total) = 0.26624E+00    rms(broyden)= 0.26436E+00
  rms(prec ) = 0.26627E+00
  weight for this iteration     100.00

 eigenvalues of (default mixing * dielectric matrix)
  average eigenvalue GAMMA=   0.7520
  0.7520

 Free energy of the ion-electron system (eV)
  ---------------------------------------------------
  alpha Z        PSCENC =         0.02383034
  Ewald energy   TEWEN  =       211.13344624
  -1/2 Hartree   DENC   =      -951.38803547
  -exchange  EXHF       =         0.00000000
  -V(xc)+E(xc)   XCENC  =        53.67511735
  PAW double counting   =       496.26012740     -499.93353288
  entropy T*S    EENTRO =         0.00057979
  eigenvalues    EBANDS =      -182.55511521
  atomic energy  EATOM  =       865.82426828
  ---------------------------------------------------
  free energy    TOTEN  =        -6.95931418 eV

  energy without entropy =       -6.95989397  energy(sigma->0) =       -6.95950744


--------------------------------------------------------------------------------------------------------




----------------------------------------- Iteration    1(  12)  ---------------------------------------


    POTLOK:  cpu time   47.62: real time   47.63
    SETDIJ:  cpu time    0.06: real time    0.06
    EDDIAG:  cpu time    1.61: real time    1.61
  RMM-DIIS:  cpu time    4.89: real time    4.89
    ORTHCH:  cpu time    0.05: real time    0.05
       DOS:  cpu time    0.00: real time    0.00
    CHARGE:  cpu time    2.96: real time    2.96
    MIXING:  cpu time    0.33: real time    0.33
    --------------------------------------------
      LOOP:  cpu time   57.52: real time   57.53

 eigenvalue-minimisations  :    44
 total energy-change (2. order) :-0.2047707E+00  (-0.5644884E-02)
 number of electron      12.0000128 magnetization       2.0000020
 augmentation part        1.0173383 magnetization       0.4865466

 Broyden mixing:
  rms(total) = 0.13965E+00    rms(broyden)= 0.13955E+00
  rms(prec ) = 0.14096E+00
  weight for this iteration     100.00

 eigenvalues of (default mixing * dielectric matrix)
  average eigenvalue GAMMA=   1.3124
  0.7011  1.9237

 Free energy of the ion-electron system (eV)
  ---------------------------------------------------
  alpha Z        PSCENC =         0.02383034
  Ewald energy   TEWEN  =       211.13344624
  -1/2 Hartree   DENC   =      -951.27087135
  -exchange  EXHF       =         0.00000000
  -V(xc)+E(xc)   XCENC  =        53.46287309
  PAW double counting   =       499.44229105     -503.12421473
  entropy T*S    EENTRO =         0.00000000
  eigenvalues    EBANDS =      -182.65570782
  atomic energy  EATOM  =       865.82426828
  ---------------------------------------------------
  free energy    TOTEN  =        -7.16408491 eV

  energy without entropy =       -7.16408491  energy(sigma->0) =       -7.16408491


--------------------------------------------------------------------------------------------------------




----------------------------------------- Iteration    1(  13)  ---------------------------------------


    POTLOK:  cpu time   48.06: real time   48.06
    SETDIJ:  cpu time    0.05: real time    0.05
    EDDIAG:  cpu time    1.61: real time    1.61
  RMM-DIIS:  cpu time    4.88: real time    4.88
    ORTHCH:  cpu time    0.05: real time    0.05
       DOS:  cpu time    0.00: real time    0.00
    CHARGE:  cpu time    2.97: real time    2.97
    MIXING:  cpu time    0.35: real time    0.35
    --------------------------------------------
      LOOP:  cpu time   57.97: real time   58.03

 eigenvalue-minimisations  :    44
 total energy-change (2. order) :-0.9910910E-02  (-0.2092083E-02)
 number of electron      12.0000128 magnetization       2.0000025
 augmentation part        1.0174902 magnetization       0.4875732

 Broyden mixing:
  rms(total) = 0.24608E-01    rms(broyden)= 0.24546E-01
  rms(prec ) = 0.25001E-01
  weight for this iteration     100.00

 eigenvalues of (default mixing * dielectric matrix)
  average eigenvalue GAMMA=   1.2745
  2.2955  0.8503  0.6776

 Free energy of the ion-electron system (eV)
  ---------------------------------------------------
  alpha Z        PSCENC =         0.02383034
  Ewald energy   TEWEN  =       211.13344624
  -1/2 Hartree   DENC   =      -951.46885144
  -exchange  EXHF       =         0.00000000
  -V(xc)+E(xc)   XCENC  =        53.48409879
  PAW double counting   =       504.75264394     -508.33765779
  entropy T*S    EENTRO =         0.00057979
  eigenvalues    EBANDS =      -182.58635396
  atomic energy  EATOM  =       865.82426828
  ---------------------------------------------------
  free energy    TOTEN  =        -7.17399582 eV

  energy without entropy =       -7.17457561  energy(sigma->0) =       -7.17418908


--------------------------------------------------------------------------------------------------------




----------------------------------------- Iteration    1(  14)  ---------------------------------------


    POTLOK:  cpu time   48.15: real time   48.16
    SETDIJ:  cpu time    0.06: real time    0.06
    EDDIAG:  cpu time    1.72: real time    1.72
  RMM-DIIS:  cpu time    5.43: real time    5.44
    ORTHCH:  cpu time    0.05: real time    0.05
       DOS:  cpu time    0.00: real time    0.00
    CHARGE:  cpu time    3.07: real time    3.07
    MIXING:  cpu time    0.38: real time    0.39
    --------------------------------------------
      LOOP:  cpu time   58.86: real time   58.88

 eigenvalue-minimisations  :    44
 total energy-change (2. order) :-0.6574133E-02  (-0.2918988E-03)
 number of electron      12.0000128 magnetization       2.0000031
 augmentation part        1.0170884 magnetization       0.4871074

 Broyden mixing:
  rms(total) = 0.86543E-02    rms(broyden)= 0.86524E-02
  rms(prec ) = 0.90509E-02
  weight for this iteration     100.00

 eigenvalues of (default mixing * dielectric matrix)
  average eigenvalue GAMMA=   1.2640
  2.3900  1.2498  0.6695  0.7468

 Free energy of the ion-electron system (eV)
  ---------------------------------------------------
  alpha Z        PSCENC =         0.02383034
  Ewald energy   TEWEN  =       211.13344624
  -1/2 Hartree   DENC   =      -951.77345019
  -exchange  EXHF       =         0.00000000
  -V(xc)+E(xc)   XCENC  =        53.49261191
  PAW double counting   =       505.68797277     -509.27662281
  entropy T*S    EENTRO =         0.00057979
  eigenvalues    EBANDS =      -182.29320628
  atomic energy  EATOM  =       865.82426828
  ---------------------------------------------------
  free energy    TOTEN  =        -7.18056995 eV

  energy without entropy =       -7.18114974  energy(sigma->0) =       -7.18076322


--------------------------------------------------------------------------------------------------------




----------------------------------------- Iteration    1(  15)  ---------------------------------------


    POTLOK:  cpu time   47.94: real time   47.95
    SETDIJ:  cpu time    0.05: real time    0.05
    EDDIAG:  cpu time    1.61: real time    1.61
  RMM-DIIS:  cpu time    4.89: real time    4.89
    ORTHCH:  cpu time    0.05: real time    0.05
       DOS:  cpu time    0.00: real time    0.00
    CHARGE:  cpu time    2.96: real time    2.96
    MIXING:  cpu time    0.41: real time    0.41
    --------------------------------------------
      LOOP:  cpu time   57.91: real time   57.93

 eigenvalue-minimisations  :    44
 total energy-change (2. order) :-0.1375146E-02  (-0.7742627E-04)
 number of electron      12.0000128 magnetization       2.0000035
 augmentation part        1.0169654 magnetization       0.4870512

 Broyden mixing:
  rms(total) = 0.27137E-02    rms(broyden)= 0.27112E-02
  rms(prec ) = 0.30142E-02
  weight for this iteration     100.00

 eigenvalues of (default mixing * dielectric matrix)
  average eigenvalue GAMMA=   1.2259
  2.4282  1.4682  0.8867  0.6885  0.6580

 Free energy of the ion-electron system (eV)
  ---------------------------------------------------
  alpha Z        PSCENC =         0.02383034
  Ewald energy   TEWEN  =       211.13344624
  -1/2 Hartree   DENC   =      -951.99905684
  -exchange  EXHF       =         0.00000000
  -V(xc)+E(xc)   XCENC  =        53.49791672
  PAW double counting   =       505.97373750     -509.55285957
  entropy T*S    EENTRO =         0.00000000
  eigenvalues    EBANDS =      -182.08322775
  atomic energy  EATOM  =       865.82426828
  ---------------------------------------------------
  free energy    TOTEN  =        -7.18194510 eV

  energy without entropy =       -7.18194510  energy(sigma->0) =       -7.18194510


--------------------------------------------------------------------------------------------------------




----------------------------------------- Iteration    1(  16)  ---------------------------------------


    POTLOK:  cpu time   47.65: real time   47.66
    SETDIJ:  cpu time    0.06: real time    0.06
    EDDIAG:  cpu time    1.60: real time    1.60
  RMM-DIIS:  cpu time    4.89: real time    4.89
    ORTHCH:  cpu time    0.05: real time    0.05
       DOS:  cpu time    0.00: real time    0.00
    CHARGE:  cpu time    2.94: real time    2.95
    MIXING:  cpu time    0.43: real time    0.43
    --------------------------------------------
      LOOP:  cpu time   57.62: real time   57.63

 eigenvalue-minimisations  :    44
 total energy-change (2. order) :-0.3882238E-03  (-0.1425422E-04)
 number of electron      12.0000128 magnetization       2.0000039
 augmentation part        1.0168779 magnetization       0.4869102

 Broyden mixing:
  rms(total) = 0.15563E-02    rms(broyden)= 0.15546E-02
  rms(prec ) = 0.18442E-02
  weight for this iteration     100.00

 eigenvalues of (default mixing * dielectric matrix)
  average eigenvalue GAMMA=   1.1873
  2.4408  1.5152  1.0531  0.7965  0.6787  0.6392

 Free energy of the ion-electron system (eV)
  ---------------------------------------------------
  alpha Z        PSCENC =         0.02383034
  Ewald energy   TEWEN  =       211.13344624
  -1/2 Hartree   DENC   =      -952.05565560
  -exchange  EXHF       =         0.00000000
  -V(xc)+E(xc)   XCENC  =        53.49899312
  PAW double counting   =       505.95673326     -509.53665718
  entropy T*S    EENTRO =         0.00000000
  eigenvalues    EBANDS =      -182.02729178
  atomic energy  EATOM  =       865.82426828
  ---------------------------------------------------
  free energy    TOTEN  =        -7.18233332 eV

  energy without entropy =       -7.18233332  energy(sigma->0) =       -7.18233332


--------------------------------------------------------------------------------------------------------




----------------------------------------- Iteration    1(  17)  ---------------------------------------


    POTLOK:  cpu time   47.74: real time   47.75
    SETDIJ:  cpu time    0.05: real time    0.05
    EDDIAG:  cpu time    1.66: real time    1.66
  RMM-DIIS:  cpu time    4.89: real time    4.89
    ORTHCH:  cpu time    0.05: real time    0.05
       DOS:  cpu time    0.00: real time    0.00
    CHARGE:  cpu time    2.94: real time    2.94
    MIXING:  cpu time    0.46: real time    0.46
    --------------------------------------------
      LOOP:  cpu time   57.80: real time   57.84

 eigenvalue-minimisations  :    44
 total energy-change (2. order) :-0.3970579E-03  (-0.4165063E-05)
 number of electron      12.0000128 magnetization       2.0000046
 augmentation part        1.0169066 magnetization       0.4869263

 Broyden mixing:
  rms(total) = 0.89916E-03    rms(broyden)= 0.89890E-03
  rms(prec ) = 0.11710E-02
  weight for this iteration     100.00

 eigenvalues of (default mixing * dielectric matrix)
  average eigenvalue GAMMA=   1.3294
  2.4298  2.1625  1.7456  0.9166  0.6365  0.6802  0.7348

 Free energy of the ion-electron system (eV)
  ---------------------------------------------------
  alpha Z        PSCENC =         0.02383034
  Ewald energy   TEWEN  =       211.13344624
  -1/2 Hartree   DENC   =      -952.08268967
  -exchange  EXHF       =         0.00000000
  -V(xc)+E(xc)   XCENC  =        53.49836833
  PAW double counting   =       505.88823616     -509.46682258
  entropy T*S    EENTRO =         0.00000000
  eigenvalues    EBANDS =      -182.00136747
  atomic energy  EATOM  =       865.82426828
  ---------------------------------------------------
  free energy    TOTEN  =        -7.18273038 eV

  energy without entropy =       -7.18273038  energy(sigma->0) =       -7.18273038


--------------------------------------------------------------------------------------------------------




----------------------------------------- Iteration    1(  18)  ---------------------------------------


    POTLOK:  cpu time   47.53: real time   47.54
    SETDIJ:  cpu time    0.06: real time    0.06
    EDDIAG:  cpu time    1.62: real time    1.62
  RMM-DIIS:  cpu time    5.41: real time    5.41
    ORTHCH:  cpu time    0.05: real time    0.05
       DOS:  cpu time    0.00: real time    0.00
    CHARGE:  cpu time    3.01: real time    3.01
    MIXING:  cpu time    0.50: real time    0.50
    --------------------------------------------
      LOOP:  cpu time   58.18: real time   58.21

 eigenvalue-minimisations  :    44
 total energy-change (2. order) :-0.6208132E-03  (-0.6843612E-05)
 number of electron      12.0000128 magnetization       2.0000051
 augmentation part        1.0169548 magnetization       0.4869403

 Broyden mixing:
  rms(total) = 0.45920E-03    rms(broyden)= 0.45885E-03
  rms(prec ) = 0.65866E-03
  weight for this iteration     100.00

 eigenvalues of (default mixing * dielectric matrix)
  average eigenvalue GAMMA=   1.3092
  2.4707  2.4707  1.6576  0.9848  0.8562  0.6361  0.6715  0.7261

 Free energy of the ion-electron system (eV)
  ---------------------------------------------------
  alpha Z        PSCENC =         0.02383034
  Ewald energy   TEWEN  =       211.13344624
  -1/2 Hartree   DENC   =      -952.12602450
  -exchange  EXHF       =         0.00000000
  -V(xc)+E(xc)   XCENC  =        53.49801006
  PAW double counting   =       505.81719071     -509.39518530
  entropy T*S    EENTRO =         0.00000000
  eigenvalues    EBANDS =      -181.95888701
  atomic energy  EATOM  =       865.82426828
  ---------------------------------------------------
  free energy    TOTEN  =        -7.18335119 eV

  energy without entropy =       -7.18335119  energy(sigma->0) =       -7.18335119


--------------------------------------------------------------------------------------------------------




----------------------------------------- Iteration    1(  19)  ---------------------------------------


    POTLOK:  cpu time   47.58: real time   47.59
    SETDIJ:  cpu time    0.06: real time    0.06
    EDDIAG:  cpu time    1.60: real time    1.60
  RMM-DIIS:  cpu time    4.59: real time    4.59
    ORTHCH:  cpu time    0.05: real time    0.05
       DOS:  cpu time    0.00: real time    0.00
    CHARGE:  cpu time    2.95: real time    2.95
    MIXING:  cpu time    0.53: real time    0.53
    --------------------------------------------
      LOOP:  cpu time   57.36: real time   57.37

 eigenvalue-minimisations  :    41
 total energy-change (2. order) : 0.1800838E-03  (-0.4132123E-05)
 number of electron      12.0000128 magnetization       2.0000058
 augmentation part        1.0169322 magnetization       0.4869386

 Broyden mixing:
  rms(total) = 0.29372E-03    rms(broyden)= 0.29353E-03
  rms(prec ) = 0.44900E-03
  weight for this iteration     100.00

 eigenvalues of (default mixing * dielectric matrix)
  average eigenvalue GAMMA=   1.4472
  3.3655  2.4659  1.7602  1.7602  0.9189  0.6278  0.6567  0.7595  0.7101

 Free energy of the ion-electron system (eV)
  ---------------------------------------------------
  alpha Z        PSCENC =         0.02383034
  Ewald energy   TEWEN  =       211.13344624
  -1/2 Hartree   DENC   =      -952.16453450
  -exchange  EXHF       =         0.00000000
  -V(xc)+E(xc)   XCENC  =        53.49879531
  PAW double counting   =       505.82552526     -509.40366234
  entropy T*S    EENTRO =         0.00057979
  eigenvalues    EBANDS =      -181.92141948
  atomic energy  EATOM  =       865.82426828
  ---------------------------------------------------
  free energy    TOTEN  =        -7.18317111 eV

  energy without entropy =       -7.18375090  energy(sigma->0) =       -7.18336437


--------------------------------------------------------------------------------------------------------




----------------------------------------- Iteration    1(  20)  ---------------------------------------


    POTLOK:  cpu time   47.37: real time   47.38
    SETDIJ:  cpu time    0.07: real time    0.07
    EDDIAG:  cpu time    1.75: real time    1.75
  RMM-DIIS:  cpu time    5.07: real time    5.07
    ORTHCH:  cpu time    0.05: real time    0.05
       DOS:  cpu time    0.00: real time    0.00
    CHARGE:  cpu time    3.18: real time    3.18
    MIXING:  cpu time    0.59: real time    0.59
    --------------------------------------------
      LOOP:  cpu time   58.07: real time   58.09

 eigenvalue-minimisations  :    42
 total energy-change (2. order) :-0.3772587E-03  (-0.5146519E-05)
 number of electron      12.0000128 magnetization       2.0000061
 augmentation part        1.0169012 magnetization       0.4869281

 Broyden mixing:
  rms(total) = 0.21417E-03    rms(broyden)= 0.21387E-03
  rms(prec ) = 0.29353E-03
  weight for this iteration     100.00

 eigenvalues of (default mixing * dielectric matrix)
  average eigenvalue GAMMA=   1.4135
  3.7109  2.4806  1.7327  1.6521  0.9099  0.9099  0.7725  0.6235  0.6527  0.6896

 Free energy of the ion-electron system (eV)
  ---------------------------------------------------
  alpha Z        PSCENC =         0.02383034
  Ewald energy   TEWEN  =       211.13344624
  -1/2 Hartree   DENC   =      -952.20381293
  -exchange  EXHF       =         0.00000000
  -V(xc)+E(xc)   XCENC  =        53.49943813
  PAW double counting   =       505.82517674     -509.40359060
  entropy T*S    EENTRO =         0.00057979
  eigenvalues    EBANDS =      -181.88288435
  atomic energy  EATOM  =       865.82426828
  ---------------------------------------------------
  free energy    TOTEN  =        -7.18354837 eV

  energy without entropy =       -7.18412816  energy(sigma->0) =       -7.18374163


--------------------------------------------------------------------------------------------------------




----------------------------------------- Iteration    1(  21)  ---------------------------------------


    POTLOK:  cpu time   47.03: real time   47.03
    SETDIJ:  cpu time    0.06: real time    0.06
    EDDIAG:  cpu time    1.61: real time    1.61
  RMM-DIIS:  cpu time    4.51: real time    4.51
    ORTHCH:  cpu time    0.05: real time    0.05
       DOS:  cpu time    0.00: real time    0.00
    CHARGE:  cpu time    2.95: real time    2.95
    MIXING:  cpu time    0.63: real time    0.63
    --------------------------------------------
      LOOP:  cpu time   56.83: real time   56.84

 eigenvalue-minimisations  :    40
 total energy-change (2. order) :-0.1057264E-03  (-0.8467924E-06)
 number of electron      12.0000128 magnetization       2.0000068
 augmentation part        1.0169097 magnetization       0.4869346

 Broyden mixing:
  rms(total) = 0.13575E-03    rms(broyden)= 0.13569E-03
  rms(prec ) = 0.21085E-03
  weight for this iteration     100.00

 eigenvalues of (default mixing * dielectric matrix)
  average eigenvalue GAMMA=   1.5719
  4.5078  2.5651  2.0179  2.0179  1.7521  0.8581  0.8581  0.7638  0.6222  0.6447
  0.6827

 Free energy of the ion-electron system (eV)
  ---------------------------------------------------
  alpha Z        PSCENC =         0.02383034
  Ewald energy   TEWEN  =       211.13344624
  -1/2 Hartree   DENC   =      -952.20417181
  -exchange  EXHF       =         0.00000000
  -V(xc)+E(xc)   XCENC  =        53.49899863
  PAW double counting   =       505.81153155     -509.38984845
  entropy T*S    EENTRO =         0.00057979
  eigenvalues    EBANDS =      -181.88228865
  atomic energy  EATOM  =       865.82426828
  ---------------------------------------------------
  free energy    TOTEN  =        -7.18365410 eV

  energy without entropy =       -7.18423389  energy(sigma->0) =       -7.18384736


--------------------------------------------------------------------------------------------------------




----------------------------------------- Iteration    1(  22)  ---------------------------------------


    POTLOK:  cpu time   47.03: real time   47.04
    SETDIJ:  cpu time    0.05: real time    0.06
    EDDIAG:  cpu time    1.62: real time    1.62
  RMM-DIIS:  cpu time    4.50: real time    4.50
    ORTHCH:  cpu time    0.05: real time    0.05
       DOS:  cpu time    0.00: real time    0.00
    CHARGE:  cpu time    2.97: real time    2.97
    MIXING:  cpu time    0.68: real time    0.68
    --------------------------------------------
      LOOP:  cpu time   56.89: real time   56.90

 eigenvalue-minimisations  :    40
 total energy-change (2. order) :-0.7713953E-03  (-0.1600320E-05)
 number of electron      12.0000128 magnetization       2.0000070
 augmentation part        1.0169233 magnetization       0.4869428

 Broyden mixing:
  rms(total) = 0.13165E-03    rms(broyden)= 0.13158E-03
  rms(prec ) = 0.15329E-03
  weight for this iteration     100.00

 eigenvalues of (default mixing * dielectric matrix)
  average eigenvalue GAMMA=   1.6212
  5.6141  2.8227  2.4189  1.6365  1.6365  0.9532  0.9532  0.7866  0.6225  0.6333
  0.6955  0.6816

 Free energy of the ion-electron system (eV)
  ---------------------------------------------------
  alpha Z        PSCENC =         0.02383034
  Ewald energy   TEWEN  =       211.13344624
  -1/2 Hartree   DENC   =      -952.21669188
  -exchange  EXHF       =         0.00000000
  -V(xc)+E(xc)   XCENC  =        53.49872066
  PAW double counting   =       505.80362921     -509.38187786
  entropy T*S    EENTRO =         0.00000000
  eigenvalues    EBANDS =      -181.86975047
  atomic energy  EATOM  =       865.82426828
  ---------------------------------------------------
  free energy    TOTEN  =        -7.18442549 eV

  energy without entropy =       -7.18442549  energy(sigma->0) =       -7.18442549


--------------------------------------------------------------------------------------------------------




----------------------------------------- Iteration    1(  23)  ---------------------------------------


    POTLOK:  cpu time   47.26: real time   47.27
    SETDIJ:  cpu time    0.06: real time    0.06
    EDDIAG:  cpu time    1.59: real time    1.59
  RMM-DIIS:  cpu time    4.11: real time    4.11
    ORTHCH:  cpu time    0.05: real time    0.05
       DOS:  cpu time    0.00: real time    0.00
    CHARGE:  cpu time    2.95: real time    2.95
    MIXING:  cpu time    0.73: real time    0.73
    --------------------------------------------
      LOOP:  cpu time   56.75: real time   56.76

 eigenvalue-minimisations  :    36
 total energy-change (2. order) :-0.2683240E-04  (-0.2191118E-06)
 number of electron      12.0000128 magnetization       2.0000074
 augmentation part        1.0169062 magnetization       0.4869415

 Broyden mixing:
  rms(total) = 0.53840E-04    rms(broyden)= 0.53756E-04
  rms(prec ) = 0.81640E-04
  weight for this iteration     100.00

 eigenvalues of (default mixing * dielectric matrix)
  average eigenvalue GAMMA=   1.6427
  5.9398  2.9155  2.4510  1.6226  1.5902  1.5902  0.9335  0.9335  0.7687  0.6203
  0.6302  0.6884  0.6709

 Free energy of the ion-electron system (eV)
  ---------------------------------------------------
  alpha Z        PSCENC =         0.02383034
  Ewald energy   TEWEN  =       211.13344624
  -1/2 Hartree   DENC   =      -952.22322067
  -exchange  EXHF       =         0.00000000
  -V(xc)+E(xc)   XCENC  =        53.49898390
  PAW double counting   =       505.81319966     -509.39154660
  entropy T*S    EENTRO =         0.00000000
  eigenvalues    EBANDS =      -181.86341346
  atomic energy  EATOM  =       865.82426828
  ---------------------------------------------------
  free energy    TOTEN  =        -7.18445232 eV

  energy without entropy =       -7.18445232  energy(sigma->0) =       -7.18445232


--------------------------------------------------------------------------------------------------------




----------------------------------------- Iteration    1(  24)  ---------------------------------------


    POTLOK:  cpu time   46.87: real time   46.88
    SETDIJ:  cpu time    0.06: real time    0.06
    EDDIAG:  cpu time    1.66: real time    1.66
  RMM-DIIS:  cpu time    4.35: real time    4.35
    ORTHCH:  cpu time    0.05: real time    0.05
       DOS:  cpu time    0.00: real time    0.00
    CHARGE:  cpu time    3.15: real time    3.15
    MIXING:  cpu time    0.85: real time    0.85
    --------------------------------------------
      LOOP:  cpu time   56.98: real time   56.99

 eigenvalue-minimisations  :    35
 total energy-change (2. order) :-0.6132331E-04  (-0.2095194E-06)
 number of electron      12.0000128 magnetization       2.0000076
 augmentation part        1.0168946 magnetization       0.4869427

 Broyden mixing:
  rms(total) = 0.67573E-04    rms(broyden)= 0.67536E-04
  rms(prec ) = 0.75364E-04
  weight for this iteration     100.00

 eigenvalues of (default mixing * dielectric matrix)
  average eigenvalue GAMMA=   1.7856
  6.9701  3.7301  2.5900  2.4182  1.6678  1.5272  0.9765  0.9765  0.8262  0.7273
  0.6904  0.6545  0.6129  0.6311

 Free energy of the ion-electron system (eV)
  ---------------------------------------------------
  alpha Z        PSCENC =         0.02383034
  Ewald energy   TEWEN  =       211.13344624
  -1/2 Hartree   DENC   =      -952.22700137
  -exchange  EXHF       =         0.00000000
  -V(xc)+E(xc)   XCENC  =        53.49905074
  PAW double counting   =       505.81666557     -509.39500918
  entropy T*S    EENTRO =         0.00000000
  eigenvalues    EBANDS =      -181.85976424
  atomic energy  EATOM  =       865.82426828
  ---------------------------------------------------
  free energy    TOTEN  =        -7.18451365 eV

  energy without entropy =       -7.18451365  energy(sigma->0) =       -7.18451365


--------------------------------------------------------------------------------------------------------




----------------------------------------- Iteration    1(  25)  ---------------------------------------


    POTLOK:  cpu time   47.06: real time   47.07
    SETDIJ:  cpu time    0.05: real time    0.05
    EDDIAG:  cpu time    1.61: real time    1.61
  RMM-DIIS:  cpu time    3.54: real time    3.54
    ORTHCH:  cpu time    0.05: real time    0.05
       DOS:  cpu time    0.00: real time    0.00
    CHARGE:  cpu time    2.97: real time    2.97
    MIXING:  cpu time    0.85: real time    0.85
    --------------------------------------------
      LOOP:  cpu time   56.13: real time   56.15

 eigenvalue-minimisations  :    30
 total energy-change (2. order) :-0.1550235E-04  (-0.6645044E-07)
 number of electron      12.0000128 magnetization       2.0000077
 augmentation part        1.0168971 magnetization       0.4869447

 Broyden mixing:
  rms(total) = 0.28286E-04    rms(broyden)= 0.28279E-04
  rms(prec ) = 0.34400E-04
  weight for this iteration     100.00

 eigenvalues of (default mixing * dielectric matrix)
  average eigenvalue GAMMA=   1.7925
  7.4426  4.1319  2.6703  2.4271  1.5479  1.5479  1.0601  1.0601  0.9291  0.7858
  0.7288  0.6817  0.6054  0.6227  0.6469

 Free energy of the ion-electron system (eV)
  ---------------------------------------------------
  alpha Z        PSCENC =         0.02383034
  Ewald energy   TEWEN  =       211.13344624
  -1/2 Hartree   DENC   =      -952.22566634
  -exchange  EXHF       =         0.00000000
  -V(xc)+E(xc)   XCENC  =        53.49888774
  PAW double counting   =       505.81196486     -509.39025206
  entropy T*S    EENTRO =         0.00000000
  eigenvalues    EBANDS =      -181.86100819
  atomic energy  EATOM  =       865.82426828
  ---------------------------------------------------
  free energy    TOTEN  =        -7.18452915 eV

  energy without entropy =       -7.18452915  energy(sigma->0) =       -7.18452915


--------------------------------------------------------------------------------------------------------




----------------------------------------- Iteration    1(  26)  ---------------------------------------


    POTLOK:  cpu time   46.76: real time   46.77
    SETDIJ:  cpu time    0.06: real time    0.06
    EDDIAG:  cpu time    1.62: real time    1.62
  RMM-DIIS:  cpu time    3.51: real time    3.51
    ORTHCH:  cpu time    0.05: real time    0.05
       DOS:  cpu time    0.00: real time    0.00
    CHARGE:  cpu time    2.96: real time    2.96
    MIXING:  cpu time    0.91: real time    0.91
    --------------------------------------------
      LOOP:  cpu time   55.86: real time   55.87

 eigenvalue-minimisations  :    29
 total energy-change (2. order) :-0.8986050E-05  (-0.2672502E-07)
 number of electron      12.0000128 magnetization       2.0000079
 augmentation part        1.0168997 magnetization       0.4869457

 Broyden mixing:
  rms(total) = 0.13839E-04    rms(broyden)= 0.13813E-04
  rms(prec ) = 0.19433E-04
  weight for this iteration     100.00

 eigenvalues of (default mixing * dielectric matrix)
  average eigenvalue GAMMA=   1.8359
  7.8030  4.4948  2.7277  2.4448  1.7902  1.7902  1.4681  1.0077  1.0077  0.8591
  0.7508  0.7049  0.6773  0.6393  0.6155  0.5935

 Free energy of the ion-electron system (eV)
  ---------------------------------------------------
  alpha Z        PSCENC =         0.02383034
  Ewald energy   TEWEN  =       211.13344624
  -1/2 Hartree   DENC   =      -952.22445669
  -exchange  EXHF       =         0.00000000
  -V(xc)+E(xc)   XCENC  =        53.49877858
  PAW double counting   =       505.80973667     -509.38800444
  entropy T*S    EENTRO =         0.00000000
  eigenvalues    EBANDS =      -181.86213710
  atomic energy  EATOM  =       865.82426828
  ---------------------------------------------------
  free energy    TOTEN  =        -7.18453814 eV

  energy without entropy =       -7.18453814  energy(sigma->0) =       -7.18453814


--------------------------------------------------------------------------------------------------------




----------------------------------------- Iteration    1(  27)  ---------------------------------------


    POTLOK:  cpu time   46.99: real time   47.00
    SETDIJ:  cpu time    0.06: real time    0.06
    EDDIAG:  cpu time    1.76: real time    1.76
  RMM-DIIS:  cpu time    3.74: real time    3.74
    ORTHCH:  cpu time    0.05: real time    0.05
       DOS:  cpu time    0.00: real time    0.00
    CHARGE:  cpu time    3.18: real time    3.18
    MIXING:  cpu time    0.99: real time    0.99
    --------------------------------------------
      LOOP:  cpu time   56.77: real time   56.79

 eigenvalue-minimisations  :    29
 total energy-change (2. order) :-0.7432266E-05  (-0.2584432E-07)
 number of electron      12.0000128 magnetization       2.0000080
 augmentation part        1.0169012 magnetization       0.4869466

 Broyden mixing:
  rms(total) = 0.17764E-04    rms(broyden)= 0.17753E-04
  rms(prec ) = 0.19374E-04
  weight for this iteration     100.00

 eigenvalues of (default mixing * dielectric matrix)
  average eigenvalue GAMMA=   1.8961
  8.3284  5.1448  3.1120  2.5754  2.3985  1.6309  1.3424  1.0736  1.0736  0.8939
  0.7680  0.7223  0.6890  0.6592  0.6313  0.6154  0.5756

 Free energy of the ion-electron system (eV)
  ---------------------------------------------------
  alpha Z        PSCENC =         0.02383034
  Ewald energy   TEWEN  =       211.13344624
  -1/2 Hartree   DENC   =      -952.22354105
  -exchange  EXHF       =         0.00000000
  -V(xc)+E(xc)   XCENC  =        53.49869930
  PAW double counting   =       505.80870655     -509.38698006
  entropy T*S    EENTRO =         0.00000000
  eigenvalues    EBANDS =      -181.86297517
  atomic energy  EATOM  =       865.82426828
  ---------------------------------------------------
  free energy    TOTEN  =        -7.18454557 eV

  energy without entropy =       -7.18454557  energy(sigma->0) =       -7.18454557


--------------------------------------------------------------------------------------------------------




----------------------------------------- Iteration    1(  28)  ---------------------------------------


    POTLOK:  cpu time   46.69: real time   46.69
    SETDIJ:  cpu time    0.06: real time    0.06
    EDDIAG:  cpu time    1.60: real time    1.60
  RMM-DIIS:  cpu time    3.42: real time    3.42
    ORTHCH:  cpu time    0.05: real time    0.05
       DOS:  cpu time    0.00: real time    0.00
    CHARGE:  cpu time    2.95: real time    2.95
    MIXING:  cpu time    1.01: real time    1.01
    --------------------------------------------
      LOOP:  cpu time   55.77: real time   55.79

 eigenvalue-minimisations  :    28
 total energy-change (2. order) :-0.1572207E-05  (-0.8217437E-08)
 number of electron      12.0000128 magnetization       2.0000081
 augmentation part        1.0168998 magnetization       0.4869460

 Broyden mixing:
  rms(total) = 0.67360E-05    rms(broyden)= 0.67353E-05
  rms(prec ) = 0.84747E-05
  weight for this iteration     100.00

 eigenvalues of (default mixing * dielectric matrix)
  average eigenvalue GAMMA=   1.8848
  8.4596  5.3506  3.2959  2.6063  2.4000  1.6045  1.3489  1.3489  1.0010  1.0010
  0.8936  0.7619  0.7058  0.6931  0.6456  0.6314  0.6115  0.5665

 Free energy of the ion-electron system (eV)
  ---------------------------------------------------
  alpha Z        PSCENC =         0.02383034
  Ewald energy   TEWEN  =       211.13344624
  -1/2 Hartree   DENC   =      -952.22397366
  -exchange  EXHF       =         0.00000000
  -V(xc)+E(xc)   XCENC  =        53.49872519
  PAW double counting   =       505.80960998     -509.38790003
  entropy T*S    EENTRO =         0.00000000
  eigenvalues    EBANDS =      -181.86255346
  atomic energy  EATOM  =       865.82426828
  ---------------------------------------------------
  free energy    TOTEN  =        -7.18454714 eV

  energy without entropy =       -7.18454714  energy(sigma->0) =       -7.18454714


--------------------------------------------------------------------------------------------------------




----------------------------------------- Iteration    1(  29)  ---------------------------------------


    POTLOK:  cpu time   46.64: real time   46.65
    SETDIJ:  cpu time    0.06: real time    0.06
    EDDIAG:  cpu time    1.60: real time    1.60
  RMM-DIIS:  cpu time    3.13: real time    3.13
    ORTHCH:  cpu time    0.05: real time    0.05
       DOS:  cpu time    0.00: real time    0.00
    CHARGE:  cpu time    2.94: real time    2.94
    MIXING:  cpu time    1.11: real time    1.11
    --------------------------------------------
      LOOP:  cpu time   55.52: real time   55.56

 eigenvalue-minimisations  :    23
 total energy-change (2. order) :-0.1778291E-05  (-0.3240700E-08)
 number of electron      12.0000128 magnetization       2.0000082
 augmentation part        1.0168987 magnetization       0.4869463

 Broyden mixing:
  rms(total) = 0.57333E-05    rms(broyden)= 0.57277E-05
  rms(prec ) = 0.66285E-05
  weight for this iteration     100.00

 eigenvalues of (default mixing * dielectric matrix)
  average eigenvalue GAMMA=   1.9260
  8.6205  5.6401  3.5909  2.6640  2.3058  2.3058  1.6572  1.3018  1.1062  1.1062
  0.9365  0.7961  0.7307  0.6977  0.6797  0.6472  0.6280  0.6135  0.5663

 Free energy of the ion-electron system (eV)
  ---------------------------------------------------
  alpha Z        PSCENC =         0.02383034
  Ewald energy   TEWEN  =       211.13344624
  -1/2 Hartree   DENC   =      -952.22449515
  -exchange  EXHF       =         0.00000000
  -V(xc)+E(xc)   XCENC  =        53.49875221
  PAW double counting   =       505.81033931     -509.38863182
  entropy T*S    EENTRO =         0.00000000
  eigenvalues    EBANDS =      -181.86205832
  atomic energy  EATOM  =       865.82426828
  ---------------------------------------------------
  free energy    TOTEN  =        -7.18454892 eV

  energy without entropy =       -7.18454892  energy(sigma->0) =       -7.18454892


--------------------------------------------------------------------------------------------------------




----------------------------------------- Iteration    1(  30)  ---------------------------------------


    POTLOK:  cpu time   47.03: real time   47.04
    SETDIJ:  cpu time    0.06: real time    0.06
    EDDIAG:  cpu time    1.75: real time    1.75
  RMM-DIIS:  cpu time    3.10: real time    3.10
    ORTHCH:  cpu time    0.05: real time    0.05
       DOS:  cpu time    0.00: real time    0.00
    CHARGE:  cpu time    2.95: real time    2.95
    MIXING:  cpu time    1.19: real time    1.19
    --------------------------------------------
      LOOP:  cpu time   56.13: real time   56.14

 eigenvalue-minimisations  :    20
 total energy-change (2. order) :-0.1656365E-05  (-0.1332168E-08)
 number of electron      12.0000128 magnetization       2.0000082
 augmentation part        1.0168983 magnetization       0.4869464

 Broyden mixing:
  rms(total) = 0.52316E-05    rms(broyden)= 0.52300E-05
  rms(prec ) = 0.55762E-05
  weight for this iteration     100.00

 eigenvalues of (default mixing * dielectric matrix)
  average eigenvalue GAMMA=   1.9505
  8.9075  6.0341  4.0555  2.8880  2.5490  2.4073  1.6293  1.2522  1.2522  1.0549
  0.8831  0.8831  0.7615  0.7054  0.7054  0.6356  0.6356  0.5957  0.5957  0.5780

 Free energy of the ion-electron system (eV)
  ---------------------------------------------------
  alpha Z        PSCENC =         0.02383034
  Ewald energy   TEWEN  =       211.13344624
  -1/2 Hartree   DENC   =      -952.22456784
  -exchange  EXHF       =         0.00000000
  -V(xc)+E(xc)   XCENC  =        53.49875083
  PAW double counting   =       505.81026773     -509.38855166
  entropy T*S    EENTRO =         0.00000000
  eigenvalues    EBANDS =      -181.86199449
  atomic energy  EATOM  =       865.82426828
  ---------------------------------------------------
  free energy    TOTEN  =        -7.18455057 eV

  energy without entropy =       -7.18455057  energy(sigma->0) =       -7.18455057


--------------------------------------------------------------------------------------------------------




----------------------------------------- Iteration    1(  31)  ---------------------------------------


    POTLOK:  cpu time   46.65: real time   46.66
    SETDIJ:  cpu time    0.06: real time    0.06
    EDDIAG:  cpu time    1.59: real time    1.59
  RMM-DIIS:  cpu time    2.71: real time    2.72
    ORTHCH:  cpu time    0.05: real time    0.05
       DOS:  cpu time    0.00: real time    0.00
    --------------------------------------------
      LOOP:  cpu time   51.06: real time   51.09

 eigenvalue-minimisations  :    15
 total energy-change (2. order) :-0.3745629E-06  (-0.9460166E-10)
 number of electron      12.0000128 magnetization       2.0000082
 augmentation part        1.0168983 magnetization       0.4869464

 Free energy of the ion-electron system (eV)
  ---------------------------------------------------
  alpha Z        PSCENC =         0.02383034
  Ewald energy   TEWEN  =       211.13344624
  -1/2 Hartree   DENC   =      -952.22442767
  -exchange  EXHF       =         0.00000000
  -V(xc)+E(xc)   XCENC  =        53.49873890
  PAW double counting   =       505.80999120     -509.38827075
  entropy T*S    EENTRO =         0.00000000
  eigenvalues    EBANDS =      -181.86212747
  atomic energy  EATOM  =       865.82426828
  ---------------------------------------------------
  free energy    TOTEN  =        -7.18455095 eV

  energy without entropy =       -7.18455095  energy(sigma->0) =       -7.18455095


--------------------------------------------------------------------------------------------------------




 average (electrostatic) potential at core
  the test charge radii are     0.7215
  (the norm of the test charge is              1.0000)
       1 -84.7567       2 -84.7562



 E-fermi :  -9.0017     XC(G=0):   0.0013     alpha+bet : -0.0065


 spin component 1

 k-point   1 :       0.0000    0.0000    0.0000
  band No.  band energies     occupation 
      1     -27.3323      1.00000
      2     -23.3659      1.00000
      3     -12.4944      1.00000
      4     -11.2776      1.00000
      5     -11.2776      1.00000
      6      -9.0633      1.00000
      7      -9.0633      1.00000
      8      -5.6439      0.00000
      9      -0.1922      0.00000
     10       0.0415      0.00000
     11       0.1945      0.00000

 spin component 2

 k-point   1 :       0.0000    0.0000    0.0000
  band No.  band energies     occupation 
      1     -25.8520      1.00000
      2     -21.5974      1.00000
      3     -11.6513      1.00000
      4      -9.4435      1.00000
      5      -9.4435      1.00000
      6      -6.9628      0.00000
      7      -6.9628      0.00000
      8      -4.6311      0.00000
      9      -0.1492      0.00000
     10       0.0357      0.00000
     11       0.1669      0.00000


--------------------------------------------------------------------------------------------------------


 soft charge-density along one line, spin component            1
         0         1         2         3         4         5         6         7         8         9
 total charge-density along one line

 soft charge-density along one line, spin component            2
         0         1         2         3         4         5         6         7         8         9
 total charge-density along one line

 pseudopotential strength for first ion, spin component:            1
 14.918  -0.628   0.000  -0.042   0.000   0.000   0.001   0.000
 -0.628   0.150   0.000   0.006   0.000   0.000  -0.001   0.000
  0.000   0.000 -11.488   0.000   0.000   0.570   0.000   0.000
 -0.042   0.006   0.000 -11.455   0.000   0.000   0.551   0.000
  0.000   0.000   0.000   0.000 -11.488   0.000   0.000   0.570
  0.000   0.000   0.570   0.000   0.000  -0.014   0.000   0.000
  0.001  -0.001   0.000   0.551   0.000   0.000  -0.009   0.000
  0.000   0.000   0.000   0.000   0.570   0.000   0.000  -0.014
 pseudopotential strength for first ion, spin component:            2
 14.395  -0.553   0.000  -0.041   0.000   0.000   0.001   0.000
 -0.553   0.138   0.000   0.006   0.000   0.000  -0.001   0.000
  0.000   0.000 -10.908   0.000   0.000   0.420   0.000   0.000
 -0.041   0.006   0.000 -11.207   0.000   0.000   0.490   0.000
  0.000   0.000   0.000   0.000 -10.908   0.000   0.000   0.420
  0.000   0.000   0.420   0.000   0.000   0.033   0.000   0.000
  0.001  -0.001   0.000   0.490   0.000   0.000   0.011   0.000
  0.000   0.000   0.000   0.000   0.420   0.000   0.000   0.033
 total augmentation occupancy for first ion, spin component:            1
  2.014   0.042   0.000  -0.143   0.000   0.000  -0.007   0.000
  0.042   0.012   0.000   0.077   0.000   0.000   0.013   0.000
  0.000   0.000   1.494   0.000   0.000   0.023   0.000   0.000
 -0.143   0.077   0.000   1.038   0.000   0.000   0.104   0.000
  0.000   0.000   0.000   0.000   1.494   0.000   0.000   0.023
  0.000   0.000   0.023   0.000   0.000   0.003   0.000   0.000
 -0.007   0.013   0.000   0.104   0.000   0.000   0.016   0.000
  0.000   0.000   0.000   0.000   0.023   0.000   0.000   0.003
 total augmentation occupancy for first ion, spin component:            2
  0.021  -0.024   0.000   0.006   0.000   0.000  -0.001   0.000
 -0.024  -0.002   0.000   0.000   0.000   0.000  -0.001   0.000
  0.000   0.000   0.575   0.000   0.000  -0.032   0.000   0.000
  0.006   0.000   0.000   0.007   0.000   0.000  -0.007   0.000
  0.000   0.000   0.000   0.000   0.575   0.000   0.000  -0.032
  0.000   0.000  -0.032   0.000   0.000  -0.001   0.000   0.000
 -0.001  -0.001   0.000  -0.007   0.000   0.000  -0.002   0.000
  0.000   0.000   0.000   0.000  -0.032   0.000   0.000  -0.001


------------------------ aborting loop because EDIFF is reached ----------------------------------------


    CHARGE:  cpu time    3.01: real time    3.01
    FORLOC:  cpu time    0.18: real time    0.19
    FORNL :  cpu time    2.74: real time    2.74
    STRESS:  cpu time    8.44: real time    8.44
    FORHAR:  cpu time    1.86: real time    1.86
    MIXING:  cpu time    1.36: real time    1.36
    FORVDW:  cpu time    0.00: real time    0.00

  FORCE on cell =-STRESS in cart. coord.  units (eV):
  Direction    XX          YY          ZZ          XY          YZ          ZX
  --------------------------------------------------------------------------------------
  Alpha Z     0.02383     0.02383     0.02383
  Ewald     -32.62768   -32.62768   276.38879     0.00000     0.00000     0.00000
  Hartree   255.33412   255.33412   441.55602     0.00000     0.00000     0.00000
[...]
     0.000000000 28.000000000  0.000000000     0.000000000  0.035714286  0.000000000
     0.000000000  0.000000000 29.500000000     0.000000000  0.000000000  0.033898305

  length of vectors
    28.000000000 28.000000000 29.500000000     0.035714286  0.035714286  0.033898305


 FORCES acting on ions
    electron-ion (+dipol)            ewald-force                    non-local-force                 convergence-correction
 -----------------------------------------------------------------------------------------------
   0.135E-11 0.552E-11 0.287E+03   -.134E-16 -.769E-17 -.339E+03   0.000E+00 -.827E-24 0.523E+02   -.318E-13 -.220E-12 0.475E-03
   0.135E-11 -.340E-11 -.287E+03   0.623E-17 0.394E-17 0.339E+03   0.207E-24 0.827E-24 -.523E+02   0.262E-13 -.129E-12 -.472E-03
 -----------------------------------------------------------------------------------------------
   0.270E-11 0.212E-11 -.531E-03   -.720E-17 -.375E-17 0.000E+00   0.207E-24 0.000E+00 0.213E-13   -.564E-14 -.348E-12 0.255E-05


 POSITION                                       TOTAL-FORCE (eV/Angst)
 -----------------------------------------------------------------------------------
     14.00000     14.00000     14.20682         0.000000      0.000000      0.063928
     14.00000     14.00000     15.44318         0.000000      0.000000     -0.063928
 -----------------------------------------------------------------------------------
    total drift:                                0.000000      0.000000     -0.000528


--------------------------------------------------------------------------------------------------------



  FREE ENERGIE OF THE ION-ELECTRON SYSTEM (eV)
  ---------------------------------------------------
  free  energy   TOTEN  =        -9.82050875 eV

  energy  without entropy=       -9.82108854  energy(sigma->0) =       -9.82070202

 d Force = 0.2502477E-02[ 0.488E-03, 0.452E-02]  d Energy = 0.1929135E-02 0.573E-03
 d Force =-0.2571245E+01[-0.259E+01,-0.256E+01]  d Ewald  =-0.2571197E+01-0.480E-04


--------------------------------------------------------------------------------------------------------


    POTLOK:  cpu time   47.96: real time   47.97


--------------------------------------------------------------------------------------------------------


 stress matrix after NEB project (eV)
     -1.60134      0.00000      0.00000
      0.00000     -1.60134      0.00000
      0.00000      0.00000     -1.25492
  FORCES: max atom, RMS     0.063928    0.063928
  FORCE total and by dimension    0.090408    0.063928
  Stress total and by dimension    2.589093    1.601339
 Quasi-Newton relaxation of ions (Broydens 2nd method)
  g(Force)  = 0.158E-03   g(Stress)= 0.000E+00

 retain information from N=  1 steps
 eigenvalues of (default step * inverse Hessian matrix)
  average eigenvalue of G=   0.3744
 eigenvalue spectrum of G is  0.3744


--------------------------------------------------------------------------------------------------------


    WAVPRE:  cpu time    0.37: real time    0.37
 FEWALD executed in parallel
    FEWALD:  cpu time    0.01: real time    0.01

 real space projection operators:
  total allocation   :        139.00 KBytes
  max/ min on nodes  :         20.00         15.75

    ORTHCH:  cpu time    0.92: real time    0.92
     LOOP+:  cpu time  594.93: real time  595.17


----------------------------------------- Iteration    9(   1)  ---------------------------------------


    POTLOK:  cpu time   48.26: real time   48.27
    SETDIJ:  cpu time    0.09: real time    0.09
     EDDAV:  cpu time   10.41: real time   10.41
       DOS:  cpu time    0.00: real time    0.00
    CHARGE:  cpu time    3.41: real time    3.41
    MIXING:  cpu time    0.33: real time    0.33
    --------------------------------------------
      LOOP:  cpu time   62.49: real time   62.51

 eigenvalue-minimisations  :    56
 total energy-change (2. order) :-0.6082092E-03  (-0.2653527E-03)
 number of electron      12.0000126 magnetization       2.0000086
 augmentation part        1.1486447 magnetization       0.4946771

  free energy =  -0.982111636060E+01  energy without entropy=  -0.982111636060E+01


--------------------------------------------------------------------------------------------------------




----------------------------------------- Iteration    9(   2)  ---------------------------------------


    POTLOK:  cpu time   47.62: real time   47.62
    SETDIJ:  cpu time    0.07: real time    0.07
    EDDIAG:  cpu time    1.85: real time    1.85
  RMM-DIIS:  cpu time    6.10: real time    6.10
    ORTHCH:  cpu time    0.05: real time    0.05
       DOS:  cpu time    0.00: real time    0.00
    CHARGE:  cpu time    3.57: real time    3.57
    MIXING:  cpu time    0.36: real time    0.36
    --------------------------------------------
      LOOP:  cpu time   59.63: real time   59.66

 eigenvalue-minimisations  :    44
 total energy-change (2. order) : 0.7950267E-05  (-0.3488681E-05)
 number of electron      12.0000126 magnetization       2.0000086
 augmentation part        1.1486629 magnetization       0.4946527

 eigenvalues of (default mixing * dielectric matrix)
  average eigenvalue GAMMA=   0.7359
  0.7359

  free energy =  -0.982110841033E+01  energy without entropy=  -0.982110841033E+01


--------------------------------------------------------------------------------------------------------




----------------------------------------- Iteration    9(   3)  ---------------------------------------


    POTLOK:  cpu time   47.86: real time   47.87
    SETDIJ:  cpu time    0.08: real time    0.08
    EDDIAG:  cpu time    1.79: real time    1.79
  RMM-DIIS:  cpu time    4.47: real time    4.47
    ORTHCH:  cpu time    0.05: real time    0.05
       DOS:  cpu time    0.00: real time    0.00
    CHARGE:  cpu time    3.37: real time    3.37
    MIXING:  cpu time    0.37: real time    0.37
    --------------------------------------------
      LOOP:  cpu time   58.00: real time   58.02

 eigenvalue-minimisations  :    33
 total energy-change (2. order) :-0.2893895E-05  (-0.1991966E-06)
 number of electron      12.0000126 magnetization       2.0000086
 augmentation part        1.1486295 magnetization       0.4946315

 eigenvalues of (default mixing * dielectric matrix)
  average eigenvalue GAMMA=   1.1452
  0.6964  1.5940

  free energy =  -0.982111130423E+01  energy without entropy=  -0.982111130423E+01


--------------------------------------------------------------------------------------------------------




----------------------------------------- Iteration    9(   4)  ---------------------------------------


    POTLOK:  cpu time   47.81: real time   47.82
    SETDIJ:  cpu time    0.08: real time    0.08
    EDDIAG:  cpu time    1.79: real time    1.80
  RMM-DIIS:  cpu time    4.56: real time    4.56
    ORTHCH:  cpu time    0.05: real time    0.05
       DOS:  cpu time    0.00: real time    0.00
    CHARGE:  cpu time    3.13: real time    3.13
    MIXING:  cpu time    0.39: real time    0.39
    --------------------------------------------
      LOOP:  cpu time   57.83: real time   57.84

 eigenvalue-minimisations  :    34
 total energy-change (2. order) :-0.6253439E-05  (-0.1880738E-06)
 number of electron      12.0000126 magnetization       2.0000086
 augmentation part        1.1485860 magnetization       0.4946120

 eigenvalues of (default mixing * dielectric matrix)
  average eigenvalue GAMMA=   1.0976
  1.5700  1.0472  0.6754

  free energy =  -0.982111755767E+01  energy without entropy=  -0.982111755767E+01


--------------------------------------------------------------------------------------------------------




----------------------------------------- Iteration    9(   5)  ---------------------------------------


    POTLOK:  cpu time   48.07: real time   48.07
    SETDIJ:  cpu time    0.08: real time    0.08
    EDDIAG:  cpu time    1.77: real time    1.77
  RMM-DIIS:  cpu time    4.10: real time    4.10
    ORTHCH:  cpu time    0.05: real time    0.05
       DOS:  cpu time    0.00: real time    0.00
    CHARGE:  cpu time    3.36: real time    3.36
    MIXING:  cpu time    0.42: real time    0.42
    --------------------------------------------
      LOOP:  cpu time   57.86: real time   57.87

 eigenvalue-minimisations  :    30
 total energy-change (2. order) :-0.1343925E-05  (-0.1659227E-07)
 number of electron      12.0000126 magnetization       2.0000086
 augmentation part        1.1485871 magnetization       0.4946117

 eigenvalues of (default mixing * dielectric matrix)
  average eigenvalue GAMMA=   1.2002
  1.6930  1.6930  0.6501  0.7648

  free energy =  -0.982111890159E+01  energy without entropy=  -0.982111890159E+01


--------------------------------------------------------------------------------------------------------




----------------------------------------- Iteration    9(   6)  ---------------------------------------


    POTLOK:  cpu time   48.05: real time   48.06
    SETDIJ:  cpu time    0.08: real time    0.08
    EDDIAG:  cpu time    1.94: real time    1.94
  RMM-DIIS:  cpu time    4.22: real time    4.22
    ORTHCH:  cpu time    0.05: real time    0.05
       DOS:  cpu time    0.00: real time    0.00
    --------------------------------------------
      LOOP:  cpu time   54.35: real time   54.36

 eigenvalue-minimisations  :    26
 total energy-change (2. order) : 0.1362573E-06  (-0.4455826E-08)
 number of electron      12.0000126 magnetization       2.0000086
 augmentation part        1.1485871 magnetization       0.4946117

  free energy =  -0.982111876534E+01  energy without entropy=  -0.982111876534E+01


--------------------------------------------------------------------------------------------------------




 average (electrostatic) potential at core
  the test charge radii are     0.7215
  (the norm of the test charge is              1.0000)
       1 -84.7475       2 -84.7477



 E-fermi :  -7.0191     XC(G=0):   0.0087     alpha+bet : -0.0065


 spin component 1

 k-point   1 :       0.0000    0.0000    0.0000
  band No.  band energies     occupation 
      1     -32.6230      1.00000
      2     -20.7818      1.00000
      3     -13.6202      1.00000
      4     -13.4005      1.00000
      5     -13.4005      1.00000
      6      -7.1073      1.00000
      7      -7.1073      1.00000
      8      -0.1619      0.00000
      9       0.0487      0.00000
     10       0.1937      0.00000
     11       0.2200      0.00000

 spin component 2

 k-point   1 :       0.0000    0.0000    0.0000
  band No.  band energies     occupation 
      1     -31.3435      1.00000
      2     -18.9962      1.00000
      3     -12.5784      1.00000
      4     -11.5933      1.00000
      5     -11.5933      1.00000
      6      -4.9055      0.00000
      7      -4.9055      0.00000
      8      -0.0507      0.00000
      9       0.0531      0.00000
     10       0.1652      0.00000
     11       0.1867      0.00000


--------------------------------------------------------------------------------------------------------


 soft charge-density along one line, spin component            1
         0         1         2         3         4         5         6         7         8         9
 total charge-density along one line

 soft charge-density along one line, spin component            2
         0         1         2         3         4         5         6         7         8         9
 total charge-density along one line

 pseudopotential strength for first ion, spin component:            1
 14.912  -0.623   0.000  -0.130   0.000   0.000   0.005   0.000
 -0.623   0.149   0.000   0.015   0.000   0.000  -0.003   0.000
  0.000   0.000 -11.447   0.000   0.000   0.551   0.000   0.000
 -0.130   0.015   0.000 -11.467   0.000   0.000   0.537   0.000
  0.000   0.000   0.000   0.000 -11.447   0.000   0.000   0.551
  0.000   0.000   0.551   0.000   0.000  -0.008   0.000   0.000
  0.005  -0.003   0.000   0.537   0.000   0.000  -0.004   0.000
  0.000   0.000   0.000   0.000   0.551   0.000   0.000  -0.008
 pseudopotential strength for first ion, spin component:            2
 14.378  -0.546   0.000  -0.130   0.000   0.000   0.006   0.000
 -0.546   0.137   0.000   0.015   0.000   0.000  -0.003   0.000
  0.000   0.000 -10.848   0.000   0.000   0.395   0.000   0.000
 -0.130   0.015   0.000 -11.222   0.000   0.000   0.476   0.000
  0.000   0.000   0.000   0.000 -10.848   0.000   0.000   0.395
  0.000   0.000   0.395   0.000   0.000   0.042   0.000   0.000
  0.006  -0.003   0.000   0.476   0.000   0.000   0.017   0.000
  0.000   0.000   0.000   0.000   0.395   0.000   0.000   0.042
 total augmentation occupancy for first ion, spin component:            1
  1.957   0.101   0.000  -0.197   0.000   0.000   0.034   0.000
  0.101   0.058   0.000   0.187   0.000   0.000   0.066   0.000
  0.000   0.000   1.527   0.000   0.000   0.054   0.000   0.000
 -0.197   0.187   0.000   1.333   0.000   0.000   0.260   0.000
  0.000   0.000   0.000   0.000   1.527   0.000   0.000   0.054
  0.000   0.000   0.054   0.000   0.000   0.016   0.000   0.000
  0.034   0.066   0.000   0.260   0.000   0.000   0.080   0.000
  0.000   0.000   0.000   0.000   0.054   0.000   0.000   0.016
 total augmentation occupancy for first ion, spin component:            2
  0.024  -0.026   0.000   0.003   0.000   0.000  -0.004   0.000
 -0.026  -0.003   0.000  -0.001   0.000   0.000  -0.002   0.000
  0.000   0.000   0.572   0.000   0.000  -0.062   0.000   0.000
  0.003  -0.001   0.000   0.001   0.000   0.000  -0.008   0.000
  0.000   0.000   0.000   0.000   0.572   0.000   0.000  -0.062
  0.000   0.000  -0.062   0.000   0.000   0.001   0.000   0.000
 -0.004  -0.002   0.000  -0.008   0.000   0.000  -0.003   0.000
  0.000   0.000   0.000   0.000  -0.062   0.000   0.000   0.001


------------------------ aborting loop because EDIFF is reached ----------------------------------------


    CHARGE:  cpu time    3.53: real time    3.53
    FORLOC:  cpu time    0.21: real time    0.21
    FORNL :  cpu time    3.05: real time    3.06
    STRESS:  cpu time    8.88: real time    8.88
    FORHAR:  cpu time    2.03: real time    2.03
    MIXING:  cpu time    0.44: real time    0.44
    FORVDW:  cpu time    0.00: real time    0.00

  FORCE on cell =-STRESS in cart. coord.  units (eV):
  Direction    XX          YY          ZZ          XY          YZ          ZX
  --------------------------------------------------------------------------------------
  Alpha Z     0.02383     0.02383     0.02383
  Ewald     -32.59269   -32.59269   381.69912     0.00000     0.00000     0.00000
  Hartree   286.62387   286.62387   476.47847     0.00000     0.00000     0.00000
  E(xc)     -59.28268   -59.28268   -58.08929     0.00000     0.00000     0.00000
  Local    -438.95072  -438.95072  -998.63687     0.00000     0.00000     0.00000
  n-local   -42.35416   -42.35416   -45.87071     0.00000     0.00000     0.00000
  augment    13.78339    13.78339    11.13448     0.00000     0.00000     0.00000
  Kinetic   271.14787   271.14787   232.08080     0.00000     0.00000     0.00000
  Fock        0.00000     0.00000     0.00000     0.00000     0.00000     0.00000
  -------------------------------------------------------------------------------------
  Total      -1.60129    -1.60129    -1.18017     0.00000     0.00000     0.00000
  in kB      -0.11093    -0.11093    -0.08176     0.00000     0.00000     0.00000
  external pressure =       -0.10 kB  Pullay stress =        0.00 kB


 VOLUME and BASIS-vectors are now :
 -----------------------------------------------------------------------------
  energy-cutoff  :      400.00
  volume of cell :    23128.00
      direct lattice vectors                 reciprocal lattice vectors
    28.000000000  0.000000000  0.000000000     0.035714286  0.000000000  0.000000000
     0.000000000 28.000000000  0.000000000     0.000000000  0.035714286  0.000000000
     0.000000000  0.000000000 29.500000000     0.000000000  0.000000000  0.033898305

  length of vectors
    28.000000000 28.000000000 29.500000000     0.035714286  0.035714286  0.033898305


 FORCES acting on ions
    electron-ion (+dipol)            ewald-force                    non-local-force                 convergence-correction
 -----------------------------------------------------------------------------------------------
   0.136E-11 0.408E-12 0.287E+03   0.524E-17 0.347E-18 -.340E+03   0.000E+00 0.000E+00 0.524E+02   -.279E-13 0.382E-12 0.267E-03
   0.135E-11 0.240E-11 -.287E+03   -.124E-16 -.409E-17 0.340E+03   0.000E+00 0.000E+00 -.524E+02   0.332E-13 0.187E-12 -.266E-03
 -----------------------------------------------------------------------------------------------
   0.270E-11 0.280E-11 -.538E-03   -.720E-17 -.375E-17 0.000E+00   0.000E+00 0.000E+00 0.142E-13   0.527E-14 0.569E-12 0.137E-05


 POSITION                                       TOTAL-FORCE (eV/Angst)
 -----------------------------------------------------------------------------------
     14.00000     14.00000     14.20729         0.000000      0.000000      0.000132
     14.00000     14.00000     15.44271         0.000000      0.000000     -0.000132
 -----------------------------------------------------------------------------------
    total drift:                                0.000000      0.000000     -0.000536


--------------------------------------------------------------------------------------------------------



  FREE ENERGIE OF THE ION-ELECTRON SYSTEM (eV)
  ---------------------------------------------------
  free  energy   TOTEN  =        -9.82111877 eV

  energy  without entropy=       -9.82111877  energy(sigma->0) =       -9.82111877

 d Force = 0.2958961E-04[ 0.122E-06, 0.591E-04]  d Energy = 0.6100130E-03-0.580E-03
 d Force =-0.3134405E+00[-0.314E+00,-0.313E+00]  d Ewald  =-0.3134405E+00-0.894E-07


--------------------------------------------------------------------------------------------------------


    POTLOK:  cpu time   47.97: real time   47.98


--------------------------------------------------------------------------------------------------------


 stress matrix after NEB project (eV)
     -1.60129      0.00000      0.00000
      0.00000     -1.60129      0.00000
      0.00000      0.00000     -1.18017
  FORCES: max atom, RMS     0.000132    0.000132
  FORCE total and by dimension    0.000186    0.000132
  Stress total and by dimension    2.553637    1.601291
 Quasi-Newton relaxation of ions (Broydens 2nd method)
  g(Force)  = 0.669E-09   g(Stress)= 0.000E+00

 retain information from N=  1 steps
 eigenvalues of (default step * inverse Hessian matrix)
  average eigenvalue of G=   0.3752
 eigenvalue spectrum of G is  0.3752


--------------------------------------------------------------------------------------------------------


  
 reached required accuracy - stopping structural energy minimisation
     LOOP+:  cpu time  416.34: real time  416.52
    4ORBIT:  cpu time    0.00: real time    0.00

 total amount of memory used by VASP on root node   388404. kBytes
========================================================================

   base      :      30000. kBytes
   nonlr-proj:         59. kBytes
   fftplans  :     106425. kBytes
   grid      :     233421. kBytes
   one-center:          6. kBytes
   wavefun   :      18493. kBytes

  
  
 General timing and accounting informations for this job:
 ========================================================
  
                  Total CPU time used (sec):     9559.278
                            User time (sec):     9558.301
                          System time (sec):        0.978
                         Elapsed time (sec):     9566.466
  
                   Maximum memory used (kb):           0.
                   Average memory used (kb):           0.
  
                          Minor page faults:       200346
                          Major page faults:           46
                 Voluntary context switches:         2026
