<?xml version="1.0" encoding="ISO-8859-1"?>
<modeling>
 <generator>
  <i name="program" type="string">vasp </i>
  <i name="version" type="string">5.3.2  </i>
  <i name="subversion" type="string">13Sep12 (build Mar 13 2013 15:03:29) complex                          parallel </i>
  <i name="platform" type="string">LinuxPgi </i>
  <i name="date" type="string">2016 05 04 </i>
  <i name="time" type="string">13:52:05 </i>
 </generator>
 <incar>
  <i type="int" name="ISTART">     0</i>
  <i type="string" name="PREC">normal</i>
  <i type="string" name="ALGO"> Fast</i>
  <i type="int" name="ISPIN">     2</i>
  <i type="int" name="NELM">   400</i>
  <i type="int" name="NELMDL">   -10</i>
  <i type="int" name="IBRION">     1</i>
  <i type="int" name="NFREE">     2</i>
  <i name="EDIFF">      0.00000100</i>
  <i name="EDIFFG">     -0.04000000</i>
  <i type="int" name="NSW">  1000</i>
  <i type="int" name="ISIF">     2</i>
  <i name="ENCUT">    400.00000000</i>
  <i name="POTIM">      0.20000000</i>
  <i type="string" name="LREAL"> Auto</i>
  <i type="int" name="ISMEAR">     1</i>
  <i name="SIGMA">      0.01000000</i>
  <i type="int" name="NWRITE">     1</i>
  <i type="logical" name="LWAVE"> F  </i>
  <i type="logical" name="LCHARG"> F  </i>
  <i type="logical" name="LVTOT"> F  </i>
  <i type="int" name="NELM">   400</i>
  <i type="int" name="VOSKOWN">     1</i>
 </incar>
 <kpoints>
  <generation param="Monkhorst-Pack">
   <v type="int" name="divisions">       1        1        1 </v>
   <v name="usershift">      0.00000000       0.00000000       0.00000000 </v>
   <v name="genvec1">      1.00000000       0.00000000       0.00000000 </v>
   <v name="genvec2">      0.00000000       1.00000000       0.00000000 </v>
   <v name="genvec3">      0.00000000       0.00000000       1.00000000 </v>
   <v name="shift">      0.00000000       0.00000000       0.00000000 </v>
  </generation>
  <varray name="kpointlist" >
   <v>       0.00000000       0.00000000       0.00000000 </v>
  </varray>
  <varray name="weights" >
   <v>       1.00000000 </v>
  </varray>
 </kpoints>
 <parameters>
  <separator name="general" >
   <i type="string" name="SYSTEM">unknown system</i>
   <i type="logical" name="LCOMPAT"> F  </i>
  </separator>
  <separator name="electronic" >
   <i type="string" name="PREC">normal</i>
   <i name="ENMAX">    400.00000000</i>
   <i name="ENAUG">    605.39200000</i>
   <i name="EDIFF">      0.00000100</i>
   <i type="int" name="IALGO">    68</i>
   <i type="int" name="IWAVPR">    11</i>
   <i type="int" name="NBANDS">    11</i>
   <i name="NELECT">     12.00000000</i>
   <i type="int" name="TURBO">     0</i>
   <i type="int" name="IRESTART">     0</i>
   <i type="int" name="NREBOOT">     0</i>
   <i type="int" name="NMIN">     0</i>
   <i name="EREF">      0.00000000</i>
   <separator name="electronic smearing" >
    <i type="int" name="ISMEAR">     1</i>
    <i name="SIGMA">      0.01000000</i>
    <i name="KSPACING">      0.50000000</i>
    <i type="logical" name="KGAMMA"> T  </i>
   </separator>
   <separator name="electronic projectors" >
    <i type="logical" name="LREAL"> T  </i>
    <v name="ROPT">     -0.00050000</v>
    <i type="int" name="LMAXPAW">  -100</i>
    <i type="int" name="LMAXMIX">     2</i>
    <i type="logical" name="NLSPLINE"> F  </i>
   </separator>
   <separator name="electronic startup" >
    <i type="int" name="ISTART">     0</i>
    <i type="int" name="ICHARG">     2</i>
    <i type="int" name="INIWAV">     1</i>
   </separator>
   <separator name="electronic spin" >
    <i type="int" name="ISPIN">     2</i>
    <i type="logical" name="LNONCOLLINEAR"> F  </i>
    <v name="MAGMOM">      1.00000000      1.00000000</v>
    <i name="NUPDOWN">     -1.00000000</i>
    <i type="logical" name="LSORBIT"> F  </i>
    <v name="SAXIS">      0.00000000      0.00000000      1.00000000</v>
    <i type="logical" name="LSPIRAL"> F  </i>
    <v name="QSPIRAL">      0.00000000      0.00000000      0.00000000</v>
    <i type="logical" name="LZEROZ"> F  </i>
   </separator>
   <separator name="electronic exchange-correlation" >
    <i type="logical" name="LASPH"> F  </i>
    <i type="logical" name="LMETAGGA"> F  </i>
   </separator>
   <separator name="electronic convergence" >
    <i type="int" name="NELM">   400</i>
    <i type="int" name="NELMDL">   -10</i>
    <i type="int" name="NELMIN">     2</i>
    <i name="ENINI">    400.00000000</i>
    <separator name="electronic convergence detail" >
     <i type="logical" name="LDIAG"> T  </i>
     <i type="logical" name="LSUBROT"> T  </i>
     <i name="WEIMIN">      0.00100000</i>
     <i name="EBREAK">      0.00000002</i>
     <i name="DEPER">      0.30000000</i>
     <i type="int" name="NRMM">     4</i>
     <i name="TIME">      0.40000000</i>
    </separator>
   </separator>
   <separator name="electronic mixer" >
    <i name="AMIX">      0.40000000</i>
    <i name="BMIX">      1.00000000</i>
    <i name="AMIN">      0.10000000</i>
    <i name="AMIX_MAG">      1.60000000</i>
    <i name="BMIX_MAG">      1.00000000</i>
    <separator name="electronic mixer details" >
     <i type="int" name="IMIX">     4</i>
     <i type="int" name="MAXMIX">   -45</i>
     <i name="WC">    100.00000000</i>
     <i type="int" name="INIMIX">     1</i>
     <i type="int" name="MIXPRE">     1</i>
     <i type="int" name="MREMOVE">     5</i>
    </separator>
   </separator>
   <separator name="electronic dipolcorrection" >
    <i type="logical" name="LDIPOL"> F  </i>
    <i type="logical" name="LMONO"> F  </i>
    <i type="int" name="IDIPOL">     0</i>
    <i name="EPSILON">      1.00000000</i>
    <v name="DIPOL">   -100.00000000   -100.00000000   -100.00000000</v>
    <i name="EFIELD">      0.00000000</i>
   </separator>
  </separator>
  <separator name="grids" >
   <i type="int" name="NGX">   140</i>
   <i type="int" name="NGY">   140</i>
   <i type="int" name="NGZ">   144</i>
   <i type="int" name="NGXF">   280</i>
   <i type="int" name="NGYF">   280</i>
   <i type="int" name="NGZF">   288</i>
   <i type="logical" name="ADDGRID"> F  </i>
  </separator>
  <separator name="ionic" >
   <i type="int" name="NSW">  1000</i>
   <i type="int" name="IBRION">     1</i>
   <i type="int" name="ISIF">     2</i>
   <i name="PSTRESS">      0.00000000</i>
   <i name="EDIFFG">     -0.04000000</i>
   <i type="int" name="NFREE">     2</i>
   <i name="POTIM">      0.20000000</i>
   <i name="SMASS">     -3.00000000</i>
   <i name="SCALEE">      1.00000000</i>
  </separator>
  <separator name="ionic md" >
   <i name="TEBEG">      0.00010000</i>
   <i name="TEEND">      0.00010000</i>
   <i type="int" name="NBLOCK">     1</i>
   <i type="int" name="KBLOCK">  1000</i>
   <i type="int" name="NPACO">   256</i>
   <i name="APACO">     16.00000000</i>
  </separator>
  <separator name="symmetry" >
   <i type="int" name="ISYM">     2</i>
   <i name="SYMPREC">      0.00001000</i>
  </separator>
  <separator name="dos" >
   <i type="logical" name="LORBIT"> F  </i>
   <v name="RWIGS">     -1.00000000</v>
   <i type="int" name="NEDOS">   301</i>
   <i name="EMIN">     10.00000000</i>
   <i name="EMAX">    -10.00000000</i>
   <i name="EFERMI">      0.00000000</i>
  </separator>
  <separator name="writing" >
   <i type="int" name="NWRITE">     1</i>
   <i type="logical" name="LWAVE"> F  </i>
   <i type="logical" name="LCHARG"> F  </i>
   <i type="logical" name="LPARD"> F  </i>
   <i type="logical" name="LVTOT"> F  </i>
   <i type="logical" name="LVHAR"> F  </i>
   <i type="logical" name="LELF"> F  </i>
   <i type="logical" name="LOPTICS"> F  </i>
   <v name="STM">      0.00000000      0.00000000      0.00000000      0.00000000      0.00000000      0.00000000      0.00000000</v>
  </separator>
  <separator name="performance" >
   <i type="int" name="NPAR">     1</i>
   <i type="int" name="NSIM">     4</i>
   <i type="int" name="NBLK">    -1</i>
   <i type="logical" name="LPLANE"> T  </i>
   <i type="logical" name="LSCALAPACK"> F  </i>
   <i type="logical" name="LSCAAWARE"> F  </i>
   <i type="logical" name="LSCALU"> F  </i>
   <i type="logical" name="LASYNC"> F  </i>
   <i type="logical" name="LORBITALREAL"> F  </i>
  </separator>
  <separator name="miscellaneous" >
   <i type="int" name="IDIOT">     3</i>
   <i type="logical" name="LMUSIC"> F  </i>
   <v name="POMASS">     16.00000000</v>
   <v name="DARWINR">      0.00000000</v>
   <v name="DARWINV">      1.00000000</v>
   <i type="logical" name="LCORR"> T  </i>
  </separator>
  <i type="logical" name="GGA_COMPAT"> T  </i>
  <i type="logical" name="LBERRY"> F  </i>
  <i type="int" name="ICORELEVEL">     0</i>
  <i type="logical" name="LDAU"> F  </i>
  <i type="int" name="I_CONSTRAINED_M">     0</i>
  <separator name="electronic exchange-correlation" >
   <i type="string" name="GGA">--</i>
   <i type="int" name="VOSKOWN">     1</i>
   <i type="logical" name="LHFCALC"> F  </i>
   <i type="string" name="PRECFOCK"></i>
   <i type="logical" name="LSYMGRAD"> F  </i>
   <i type="logical" name="LHFONE"> F  </i>
   <i type="logical" name="LRHFCALC"> F  </i>
   <i type="logical" name="LTHOMAS"> F  </i>
   <i type="logical" name="LMODELHF"> F  </i>
   <i name="ENCUT4O">     -1.00000000</i>
   <i type="int" name="EXXOEP">     0</i>
   <i type="int" name="FOURORBIT">     0</i>
   <i name="AEXX">      0.00000000</i>
   <i name="HFALPHA">      0.00000000</i>
   <i name="MCALPHA">      0.00000000</i>
   <i name="ALDAX">      1.00000000</i>
   <i name="AGGAX">      1.00000000</i>
   <i name="ALDAC">      1.00000000</i>
   <i name="AGGAC">      1.00000000</i>
   <i type="int" name="NKREDX">     1</i>
   <i type="int" name="NKREDY">     1</i>
   <i type="int" name="NKREDZ">     1</i>
   <i type="logical" name="SHIFTRED"> F  </i>
   <i type="logical" name="ODDONLY"> F  </i>
   <i type="logical" name="EVENONLY"> F  </i>
   <i type="int" name="LMAXFOCK">     0</i>
   <i type="int" name="NMAXFOCKAE">     0</i>
   <i type="logical" name="LFOCKAEDFT"> F  </i>
   <i name="HFSCREEN">      0.00000000</i>
   <i name="HFSCREENC">      0.00000000</i>
   <i type="int" name="NBANDSGWLOW">     0</i>
  </separator>
  <separator name="vdW DFT" >
   <i type="logical" name="LUSE_VDW"> F  </i>
   <i name="Zab_VDW">     -0.84910000</i>
   <i name="PARAM1">      0.12340000</i>
   <i name="PARAM2">      1.00000000</i>
   <i name="PARAM3">      0.00000000</i>
  </separator>
  <separator name="model GW" >
   <i type="int" name="MODEL_GW">     0</i>
   <i name="MODEL_EPS0">   6938.40000000</i>
   <i name="MODEL_ALPHA">      1.00000000</i>
  </separator>
  <separator name="linear response parameters" >
   <i type="logical" name="LEPSILON"> F  </i>
   <i type="logical" name="LRPA"> F  </i>
   <i type="logical" name="LNABLA"> F  </i>
   <i type="logical" name="LVEL"> F  </i>
   <i type="int" name="KINTER">     0</i>
   <i name="CSHIFT">      0.10000000</i>
   <i name="OMEGAMAX">     -1.00000000</i>
   <i name="DEG_THRESHOLD">      0.00200000</i>
  </separator>
  <separator name="orbital magnetization" >
   <i type="logical" name="NUCIND"> F  </i>
   <v name="MAGPOS">      0.00000000      0.00000000      0.00000000</v>
   <i type="logical" name="LNICSALL"> T  </i>
   <i type="logical" name="ORBITALMAG"> F  </i>
   <i type="logical" name="LMAGBLOCH"> F  </i>
   <i type="logical" name="LCHIMAG"> F  </i>
   <i type="logical" name="LGAUGE"> T  </i>
   <i type="int" name="MAGATOM">     0</i>
   <v name="MAGDIPOL">      0.00000000      0.00000000      0.00000000</v>
   <v name="AVECCONST">      0.00000000      0.00000000      0.00000000</v>
  </separator>
  <separator name="response functions" >
   <i type="logical" name="LADDER"> F  </i>
   <i type="logical" name="LHARTREE"> T  </i>
   <i type="int" name="IBSE">     0</i>
   <i type="logical" name="LTCTE"> F  </i>
   <i type="logical" name="LTETE"> F  </i>
   <i type="logical" name="LTRIPLET"> F  </i>
   <i type="logical" name="LFXCEPS"> F  </i>
   <i type="logical" name="L2ORDER"> F  </i>
   <i type="logical" name="LUSEW"> F  </i>
   <i name="ENCUTGW">     -2.00000000</i>
   <i name="ENCUTGWSOFT">     -2.00000000</i>
   <i name="ENCUTLF">     -1.00000000</i>
   <i type="int" name="LMAXMP2">    -1</i>
   <i name="SCISSOR">      0.00000000</i>
   <i type="int" name="NOMEGA">     0</i>
   <i type="int" name="NOMEGAR">     0</i>
   <i type="int" name="NBANDSGW">    -1</i>
   <i type="int" name="NBANDSO">    -1</i>
   <i type="int" name="NBANDSV">    -1</i>
   <i type="int" name="NELM">   400</i>
   <i type="int" name="DIM">     3</i>
   <i type="int" name="ANTIRES">     0</i>
   <i name="OMEGAMAX">    -30.00000000</i>
   <i name="OMEGATL">   -200.00000000</i>
   <i type="int" name="OMEGAGRID">     0</i>
   <i name="CSHIFT">     -0.10000000</i>
   <i type="logical" name="SELFENERGY"> F  </i>
   <i type="logical" name="LSPECTRAL"> F  </i>
   <i type="logical" name="ODDONLYGW"> F  </i>
   <i type="logical" name="EVENONLYGW"> F  </i>
   <i type="int" name="NKREDLFX">     1</i>
   <i type="int" name="NKREDLFY">     1</i>
   <i type="int" name="NKREDLFZ">     1</i>
   <i type="int" name="MAXMEM">  1800</i>
   <i type="int" name="TELESCOPE">     0</i>
  </separator>
 </parameters>
 <atominfo>
  <atoms>       2 </atoms>
  <types>       1 </types>
  <array name="atoms" >
   <dimension dim="1">ion</dimension>
   <field type="string">element</field>
   <field type="int">atomtype</field>
   <set>
    <rc><c>O </c><c>   1</c></rc>
    <rc><c>O </c><c>   1</c></rc>
   </set>
  </array>
  <array name="atomtypes" >
   <dimension dim="1">type</dimension>
   <field type="int">atomspertype</field>
   <field type="string">element</field>
   <field>mass</field>
   <field>valence</field>
   <field type="string">pseudopotential</field>
   <set>
    <rc><c>   2</c><c>O </c><c>     16.00000000</c><c>      6.00000000</c><c> PAW_GGA O 05Jan2001                    </c></rc>
   </set>
  </array>
 </atominfo>
 <structure name="initialpos" >
  <crystal>
   <varray name="basis" >
    <v>      28.00000000       0.00000000       0.00000000 </v>
    <v>       0.00000000      28.00000000       0.00000000 </v>
    <v>       0.00000000       0.00000000      29.50000000 </v>
   </varray>
   <i name="volume">  23128.00000000 </i>
   <varray name="rec_basis" >
    <v>       0.03571429       0.00000000       0.00000000 </v>
    <v>       0.00000000       0.03571429       0.00000000 </v>
    <v>       0.00000000       0.00000000       0.03389831 </v>
   </varray>
  </crystal>
  <varray name="positions" >
   <v>       0.50000000       0.50000000       0.47457627 </v>
   <v>       0.50000000       0.50000000       0.53050847 </v>
  </varray>
 </structure>
 <calculation>
  <scstep>
   <time name="dav">   11.36   11.36</time>
   <time name="total">   58.51   58.52</time>
   <energy>
    <i name="alphaZ">      0.02383034 </i>
    <i name="ewald">    211.13344624 </i>
    <i name="hartreedc">   -953.08528720 </i>
    <i name="XCdc">     53.38519739 </i>
    <i name="pawpsdc">    492.37991565 </i>
    <i name="pawaedc">   -496.26382662 </i>
    <i name="eentropy">      0.00060533 </i>
    <i name="bandstr">    -62.74775707 </i>
    <i name="atom">    865.82426828 </i>
    <i name="e_fr_energy">    110.65039232 </i>
    <i name="e_wo_entrp">    110.64978699 </i>
    <i name="e_0_energy">    110.65019054 </i>
   </energy>
  </scstep>
  <scstep>
   <time name="dav">   12.68   12.68</time>
   <time name="total">   12.68   12.70</time>
   <energy>
    <i name="e_fr_energy">     43.22633438 </i>
    <i name="e_wo_entrp">     43.22604448 </i>
    <i name="e_0_energy">     43.22623775 </i>
   </energy>
  </scstep>
  <scstep>
   <time name="dav">    9.16    9.17</time>
   <time name="total">    9.16    9.17</time>
   <energy>
    <i name="e_fr_energy">     10.93531636 </i>
    <i name="e_wo_entrp">     10.93531636 </i>
    <i name="e_0_energy">     10.93531636 </i>
   </energy>
  </scstep>
  <scstep>
   <time name="dav">   10.68   10.68</time>
   <time name="total">   10.68   10.74</time>
   <energy>
    <i name="e_fr_energy">     -3.52497163 </i>
    <i name="e_wo_entrp">     -3.52526152 </i>
    <i name="e_0_energy">     -3.52506826 </i>
   </energy>
  </scstep>
  <scstep>
   <time name="dav">    8.91    8.91</time>
   <time name="total">    8.91    8.91</time>
   <energy>
    <i name="e_fr_energy">     -7.07026696 </i>
    <i name="e_wo_entrp">     -7.07026696 </i>
    <i name="e_0_energy">     -7.07026696 </i>
   </energy>
  </scstep>
  <scstep>
   <time name="dav">   10.64   10.64</time>
   <time name="total">   10.64   10.65</time>
   <energy>
    <i name="e_fr_energy">     -7.10453402 </i>
    <i name="e_wo_entrp">     -7.10511385 </i>
    <i name="e_0_energy">     -7.10472729 </i>
   </energy>
  </scstep>
  <scstep>
   <time name="dav">   10.24   10.24</time>
   <time name="total">   10.24   10.30</time>
   <energy>
    <i name="e_fr_energy">     -7.10465317 </i>
    <i name="e_wo_entrp">     -7.10523296 </i>
    <i name="e_0_energy">     -7.10484643 </i>
   </energy>
  </scstep>
  <scstep>
   <time name="dav">   11.63   11.63</time>
   <time name="total">   11.63   11.63</time>
   <energy>
    <i name="e_fr_energy">     -7.10465437 </i>
    <i name="e_wo_entrp">     -7.10523417 </i>
    <i name="e_0_energy">     -7.10484764 </i>
   </energy>
  </scstep>
  <scstep>
   <time name="dav">    9.77    9.77</time>
   <time name="total">    9.77    9.78</time>
   <energy>
    <i name="e_fr_energy">     -7.10465439 </i>
    <i name="e_wo_entrp">     -7.10523418 </i>
    <i name="e_0_energy">     -7.10484766 </i>
   </energy>
  </scstep>
  <scstep>
   <time name="dav">   12.59   12.59</time>
   <time name="total">   15.95   16.01</time>
   <energy>
    <i name="e_fr_energy">     -7.10465439 </i>
    <i name="e_wo_entrp">     -7.10523418 </i>
    <i name="e_0_energy">     -7.10484766 </i>
   </energy>
  </scstep>
  <scstep>
   <time name="diag">    1.60    1.60</time>
   <time name="diis">    4.89    4.89</time>
   <time name="orth">    0.05    0.05</time>
   <time name="total">   57.57   57.59</time>
   <energy>
    <i name="e_fr_energy">     -6.95931418 </i>
    <i name="e_wo_entrp">     -6.95989397 </i>
    <i name="e_0_energy">     -6.95950744 </i>
   </energy>
  </scstep>
  <scstep>
   <time name="diag">    1.61    1.61</time>
   <time name="diis">    4.89    4.89</time>
   <time name="orth">    0.05    0.05</time>
   <time name="total">   57.52   57.53</time>
   <energy>
    <i name="e_fr_energy">     -7.16408491 </i>
    <i name="e_wo_entrp">     -7.16408491 </i>
    <i name="e_0_energy">     -7.16408491 </i>
   </energy>
  </scstep>
  <scstep>
   <time name="diag">    1.61    1.61</time>
   <time name="diis">    4.88    4.88</time>
   <time name="orth">    0.05    0.05</time>
   <time name="total">   57.97   58.03</time>
   <energy>
    <i name="e_fr_energy">     -7.17399582 </i>
    <i name="e_wo_entrp">     -7.17457561 </i>
    <i name="e_0_energy">     -7.17418908 </i>
   </energy>
  </scstep>
  <scstep>
   <time name="diag">    1.72    1.72</time>
   <time name="diis">    5.43    5.44</time>
   <time name="orth">    0.05    0.05</time>
   <time name="total">   58.86   58.88</time>
   <energy>
    <i name="e_fr_energy">     -7.18056995 </i>
    <i name="e_wo_entrp">     -7.18114974 </i>
    <i name="e_0_energy">     -7.18076322 </i>
   </energy>
  </scstep>
  <scstep>
   <time name="diag">    1.61    1.61</time>
   <time name="diis">    4.89    4.89</time>
   <time name="orth">    0.05    0.05</time>
   <time name="total">   57.91   57.93</time>
   <energy>
    <i name="e_fr_energy">     -7.18194510 </i>
    <i name="e_wo_entrp">     -7.18194510 </i>
    <i name="e_0_energy">     -7.18194510 </i>
   </energy>
  </scstep>
  <scstep>
   <time name="diag">    1.60    1.60</time>
   <time name="diis">    4.89    4.89</time>
   <time name="orth">    0.05    0.05</time>
   <time name="total">   57.62   57.63</time>
   <energy>
    <i name="e_fr_energy">     -7.18233332 </i>
    <i name="e_wo_entrp">     -7.18233332 </i>
    <i name="e_0_energy">     -7.18233332 </i>
   </energy>
  </scstep>
  <scstep>
   <time name="diag">    1.66    1.66</time>
   <time name="diis">    4.89    4.89</time>
   <time name="orth">    0.05    0.05</time>
   <time name="total">   57.80   57.84</time>
   <energy>
    <i name="e_fr_energy">     -7.18273038 </i>
    <i name="e_wo_entrp">     -7.18273038 </i>
    <i name="e_0_energy">     -7.18273038 </i>
   </energy>
  </scstep>
  <scstep>
   <time name="diag">    1.62    1.62</time>
   <time name="diis">    5.41    5.41</time>
   <time name="orth">    0.05    0.05</time>
   <time name="total">   58.18   58.21</time>
   <energy>
    <i name="e_fr_energy">     -7.18335119 </i>
    <i name="e_wo_entrp">     -7.18335119 </i>
    <i name="e_0_energy">     -7.18335119 </i>
   </energy>
  </scstep>
  <scstep>
   <time name="diag">    1.60    1.60</time>
   <time name="diis">    4.59    4.59</time>
   <time name="orth">    0.05    0.05</time>
   <time name="total">   57.36   57.37</time>
   <energy>
    <i name="e_fr_energy">     -7.18317111 </i>
    <i name="e_wo_entrp">     -7.18375090 </i>
    <i name="e_0_energy">     -7.18336437 </i>
   </energy>
  </scstep>
  <scstep>
   <time name="diag">    1.75    1.75</time>
   <time name="diis">    5.07    5.07</time>
   <time name="orth">    0.05    0.05</time>
   <time name="total">   58.07   58.09</time>
   <energy>
    <i name="e_fr_energy">     -7.18354837 </i>
    <i name="e_wo_entrp">     -7.18412816 </i>
    <i name="e_0_energy">     -7.18374163 </i>
   </energy>
  </scstep>
  <scstep>
   <time name="diag">    1.61    1.61</time>
   <time name="diis">    4.51    4.51</time>
   <time name="orth">    0.05    0.05</time>
   <time name="total">   56.83   56.84</time>
   <energy>
    <i name="e_fr_energy">     -7.18365410 </i>
    <i name="e_wo_entrp">     -7.18423389 </i>
    <i name="e_0_energy">     -7.18384736 </i>
   </energy>
  </scstep>
  <scstep>
   <time name="diag">    1.62    1.62</time>
   <time name="diis">    4.50    4.50</time>
   <time name="orth">    0.05    0.05</time>
   <time name="total">   56.89   56.90</time>
   <energy>
    <i name="e_fr_energy">     -7.18442549 </i>
    <i name="e_wo_entrp">     -7.18442549 </i>
    <i name="e_0_energy">     -7.18442549 </i>
   </energy>
  </scstep>
  <scstep>
   <time name="diag">    1.59    1.59</time>
   <time name="diis">    4.11    4.11</time>
   <time name="orth">    0.05    0.05</time>
   <time name="total">   56.75   56.76</time>
   <energy>
    <i name="e_fr_energy">     -7.18445232 </i>
    <i name="e_wo_entrp">     -7.18445232 </i>
    <i name="e_0_energy">     -7.18445232 </i>
   </energy>
  </scstep>
  <scstep>
   <time name="diag">    1.66    1.66</time>
   <time name="diis">    4.35    4.35</time>
   <time name="orth">    0.05    0.05</time>
   <time name="total">   56.98   56.99</time>
   <energy>
    <i name="e_fr_energy">     -7.18451365 </i>
    <i name="e_wo_entrp">     -7.18451365 </i>
    <i name="e_0_energy">     -7.18451365 </i>
   </energy>
  </scstep>
  <scstep>
   <time name="diag">    1.61    1.61</time>
   <time name="diis">    3.54    3.54</time>
   <time name="orth">    0.05    0.05</time>
   <time name="total">   56.13   56.15</time>
   <energy>
    <i name="e_fr_energy">     -7.18452915 </i>
    <i name="e_wo_entrp">     -7.18452915 </i>
    <i name="e_0_energy">     -7.18452915 </i>
   </energy>
  </scstep>
  <scstep>
   <time name="diag">    1.62    1.62</time>
   <time name="diis">    3.51    3.51</time>
   <time name="orth">    0.05    0.05</time>
   <time name="total">   55.86   55.87</time>
   <energy>
    <i name="e_fr_energy">     -7.18453814 </i>
    <i name="e_wo_entrp">     -7.18453814 </i>
    <i name="e_0_energy">     -7.18453814 </i>
   </energy>
  </scstep>
  <scstep>
   <time name="diag">    1.76    1.76</time>
   <time name="diis">    3.74    3.74</time>
   <time name="orth">    0.05    0.05</time>
   <time name="total">   56.77   56.79</time>
   <energy>
    <i name="e_fr_energy">     -7.18454557 </i>
    <i name="e_wo_entrp">     -7.18454557 </i>
    <i name="e_0_energy">     -7.18454557 </i>
   </energy>
  </scstep>
  <scstep>
   <time name="diag">    1.60    1.60</time>
   <time name="diis">    3.42    3.42</time>
   <time name="orth">    0.05    0.05</time>
   <time name="total">   55.77   55.79</time>
   <energy>
    <i name="e_fr_energy">     -7.18454714 </i>
    <i name="e_wo_entrp">     -7.18454714 </i>
    <i name="e_0_energy">     -7.18454714 </i>
   </energy>
  </scstep>
  <scstep>
   <time name="diag">    1.60    1.60</time>
   <time name="diis">    3.13    3.13</time>
   <time name="orth">    0.05    0.05</time>
   <time name="total">   55.52   55.56</time>
   <energy>
    <i name="e_fr_energy">     -7.18454892 </i>
    <i name="e_wo_entrp">     -7.18454892 </i>
    <i name="e_0_energy">     -7.18454892 </i>
   </energy>
  </scstep>
  <scstep>
   <time name="diag">    1.75    1.75</time>
   <time name="diis">    3.10    3.10</time>
   <time name="orth">    0.05    0.05</time>
   <time name="total">   56.13   56.14</time>
   <energy>
    <i name="e_fr_energy">     -7.18455057 </i>
    <i name="e_wo_entrp">     -7.18455057 </i>
    <i name="e_0_energy">     -7.18455057 </i>
   </energy>
  </scstep>
  <scstep>
   <time name="diag">    1.59    1.59</time>
   <time name="diis">    2.71    2.72</time>
   <time name="orth">    0.05    0.05</time>
   <time name="total">   51.06   51.09</time>
   <energy>
    <i name="alphaZ">      0.02383034 </i>
    <i name="ewald">    211.13344624 </i>
    <i name="hartreedc">   -952.22442767 </i>
    <i name="XCdc">     53.49873890 </i>
    <i name="pawpsdc">    505.80999120 </i>
    <i name="pawaedc">   -509.38827075 </i>
    <i name="eentropy">      0.00000000 </i>
    <i name="bandstr">   -181.86212747 </i>
    <i name="atom">    865.82426828 </i>
    <i name="e_fr_energy">     -7.18455095 </i>
    <i name="e_wo_entrp">     -7.18455095 </i>
    <i name="e_0_energy">     -7.18455095 </i>
   </energy>
  </scstep>
  <structure>
   <crystal>
    <varray name="basis" >
     <v>      28.00000000       0.00000000       0.00000000 </v>
     <v>       0.00000000      28.00000000       0.00000000 </v>
     <v>       0.00000000       0.00000000      29.50000000 </v>
    </varray>
    <i name="volume">  23128.00000000 </i>
    <varray name="rec_basis" >
     <v>       0.03571429       0.00000000       0.00000000 </v>
     <v>       0.00000000       0.03571429       0.00000000 </v>
     <v>       0.00000000       0.00000000       0.03389831 </v>
    </varray>
   </crystal>
   <varray name="positions" >
    <v>       0.50000000       0.50000000       0.47457627 </v>
    <v>       0.50000000       0.50000000       0.53050847 </v>
   </varray>
  </structure>
  <varray name="forces" >
   <v>       0.00000000       0.00000000       8.10397447 </v>
   <v>       0.00000000       0.00000000      -8.10397447 </v>
  </varray>
  <varray name="stress" >
   <v>      -0.11351824       0.00000000       0.00000000 </v>
   <v>       0.00000000      -0.11351824       0.00000000 </v>
   <v>       0.00000000       0.00000000      -1.02281178 </v>
  </varray>
  <energy>
   <i name="e_fr_energy">     -7.18455095 </i>
   <i name="e_wo_entrp">     -7.18455095 </i>
   <i name="e_0_energy">      0.00000000 </i>
  </energy>
  <time name="totalsc"> 1417.52 1418.33</time>
 </calculation>
 <calculation>
  <scstep>
   <time name="dav">    7.17    7.17</time>
   <time name="total">   57.13   57.14</time>
   <energy>
    <i name="alphaZ">      0.02383034 </i>
    <i name="ewald">    284.57899823 </i>
    <i name="hartreedc">  -1014.43092709 </i>
    <i name="XCdc">     54.32259682 </i>
    <i name="pawpsdc">    505.80966948 </i>
    <i name="pawaedc">   -509.38794595 </i>
    <i name="eentropy">      0.00000000 </i>
    <i name="bandstr">   -195.62515600 </i>
    <i name="atom">    865.82426828 </i>
    <i name="e_fr_energy">     -8.88466590 </i>
    <i name="e_wo_entrp">     -8.88466590 </i>
    <i name="e_0_energy">     -8.88466590 </i>
   </energy>
  </scstep>
  <scstep>
   <time name="diag">    1.74    1.74</time>
   <time name="diis">    5.28    5.28</time>
   <time name="orth">    0.05    0.05</time>
   <time name="total">   59.23   59.25</time>
   <energy>
    <i name="e_fr_energy">     -9.27355131 </i>
    <i name="e_wo_entrp">     -9.27355131 </i>
    <i name="e_0_energy">     -9.27355131 </i>
   </energy>
  </scstep>
  <scstep>
   <time name="diag">    1.62    1.62</time>
   <time name="diis">    4.88    4.89</time>
   <time name="orth">    0.05    0.05</time>
   <time name="total">   58.12   58.13</time>
   <energy>
    <i name="e_fr_energy">     -9.50816006 </i>
    <i name="e_wo_entrp">     -9.50816006 </i>
    <i name="e_0_energy">     -9.50816006 </i>
   </energy>
  </scstep>
  <scstep>
   <time name="diag">    1.60    1.60</time>
   <time name="diis">    4.86    4.86</time>
   <time name="orth">    0.05    0.05</time>
   <time name="total">   58.68   58.72</time>
   <energy>
    <i name="e_fr_energy">     -9.50452526 </i>
    <i name="e_wo_entrp">     -9.50510505 </i>
    <i name="e_0_energy">     -9.50452526 </i>
   </energy>
  </scstep>
  <scstep>
   <time name="diag">    1.61    1.61</time>
   <time name="diis">    4.88    4.88</time>
   <time name="orth">    0.05    0.05</time>
   <time name="total">   58.71   58.76</time>
   <energy>
    <i name="e_fr_energy">     -9.51933317 </i>
    <i name="e_wo_entrp">     -9.51991296 </i>
    <i name="e_0_energy">     -9.51933317 </i>
   </energy>
  </scstep>
  <scstep>
   <time name="diag">    1.73    1.73</time>
   <time name="diis">    5.30    5.30</time>
   <time name="orth">    0.05    0.05</time>
   <time name="total">   59.91   59.93</time>
   <energy>
    <i name="e_fr_energy">     -9.52348196 </i>
    <i name="e_wo_entrp">     -9.52348196 </i>
    <i name="e_0_energy">     -9.52348196 </i>
   </energy>
  </scstep>
  <scstep>
   <time name="diag">    1.76    1.76</time>
   <time name="diis">    5.72    5.72</time>
   <time name="orth">    0.05    0.05</time>
   <time name="total">   61.56   61.58</time>
   <energy>
    <i name="e_fr_energy">     -9.52640496 </i>
    <i name="e_wo_entrp">     -9.52640496 </i>
    <i name="e_0_energy">     -9.52640496 </i>
   </energy>
  </scstep>
  <scstep>
   <time name="diag">    1.80    1.80</time>
   <time name="diis">    5.71    5.71</time>
   <time name="orth">    0.05    0.05</time>
   <time name="total">   61.81   61.89</time>
   <energy>
    <i name="e_fr_energy">     -9.52690496 </i>
    <i name="e_wo_entrp">     -9.52690496 </i>
    <i name="e_0_energy">     -9.52690496 </i>
   </energy>
  </scstep>
  <scstep>
   <time name="diag">    1.94    1.94</time>
   <time name="diis">    6.18    6.18</time>
   <time name="orth">    0.06    0.06</time>
   <time name="total">   62.71   62.88</time>
   <energy>
    <i name="e_fr_energy">     -9.52748059 </i>
    <i name="e_wo_entrp">     -9.52748059 </i>
    <i name="e_0_energy">     -9.52748059 </i>
   </energy>
  </scstep>
  <scstep>
   <time name="diag">    1.81    1.81</time>
   <time name="diis">    5.60    5.60</time>
   <time name="orth">    0.05    0.05</time>
   <time name="total">   61.28   61.34</time>
   <energy>
    <i name="e_fr_energy">     -9.52817016 </i>
    <i name="e_wo_entrp">     -9.52817016 </i>
    <i name="e_0_energy">     -9.52817016 </i>
   </energy>
  </scstep>
  <scstep>
   <time name="diag">    1.81    1.81</time>
   <time name="diis">    5.40    5.40</time>
   <time name="orth">    0.05    0.05</time>
   <time name="total">   61.04   61.07</time>
   <energy>
    <i name="e_fr_energy">     -9.52839271 </i>
    <i name="e_wo_entrp">     -9.52839271 </i>
    <i name="e_0_energy">     -9.52839271 </i>
   </energy>
  </scstep>
  <scstep>
   <time name="diag">    1.81    1.81</time>
   <time name="diis">    5.48    5.48</time>
   <time name="orth">    0.05    0.05</time>
   <time name="total">   60.55   60.57</time>
   <energy>
    <i name="e_fr_energy">     -9.52876908 </i>
    <i name="e_wo_entrp">     -9.52876908 </i>
    <i name="e_0_energy">     -9.52876908 </i>
   </energy>
  </scstep>
  <scstep>
   <time name="diag">    1.92    1.92</time>
   <time name="diis">    5.59    5.59</time>
   <time name="orth">    0.05    0.05</time>
   <time name="total">   60.97   60.99</time>
   <energy>
    <i name="e_fr_energy">     -9.52889496 </i>
    <i name="e_wo_entrp">     -9.52889496 </i>
    <i name="e_0_energy">     -9.52889496 </i>
   </energy>
  </scstep>
  <scstep>
   <time name="diag">    1.81    1.81</time>
   <time name="diis">    4.67    4.67</time>
   <time name="orth">    0.05    0.05</time>
   <time name="total">   59.52   59.54</time>
   <energy>
    <i name="e_fr_energy">     -9.52893784 </i>
    <i name="e_wo_entrp">     -9.52893784 </i>
    <i name="e_0_energy">     -9.52893784 </i>
   </energy>
  </scstep>
  <scstep>
   <time name="diag">    1.81    1.81</time>
   <time name="diis">    4.38    4.39</time>
   <time name="orth">    0.05    0.05</time>
   <time name="total">   59.02   59.03</time>
   <energy>
    <i name="e_fr_energy">     -9.52841919 </i>
    <i name="e_wo_entrp">     -9.52899898 </i>
    <i name="e_0_energy">     -9.52841919 </i>
   </energy>
  </scstep>
  <scstep>
   <time name="diag">    1.77    1.77</time>
   <time name="diis">    4.13    4.13</time>
   <time name="orth">    0.05    0.05</time>
   <time name="total">   58.50   58.53</time>
   <energy>
    <i name="e_fr_energy">     -9.52901399 </i>
    <i name="e_wo_entrp">     -9.52901399 </i>
    <i name="e_0_energy">     -9.52901399 </i>
   </energy>
  </scstep>
  <scstep>
   <time name="diag">    1.88    1.88</time>
   <time name="diis">    4.42    4.42</time>
   <time name="orth">    0.05    0.05</time>
   <time name="total">   59.45   59.49</time>
   <energy>
    <i name="e_fr_energy">     -9.52845447 </i>
    <i name="e_wo_entrp">     -9.52903426 </i>
    <i name="e_0_energy">     -9.52845447 </i>
   </energy>
  </scstep>
  <scstep>
   <time name="diag">    1.75    1.75</time>
   <time name="diis">    4.06    4.07</time>
   <time name="orth">    0.05    0.05</time>
   <time name="total">   54.07   54.09</time>
   <energy>
    <i name="alphaZ">      0.02383034 </i>
    <i name="ewald">    284.57899823 </i>
    <i name="hartreedc">  -1021.30257786 </i>
    <i name="XCdc">     54.81390607 </i>
    <i name="pawpsdc">    543.27172470 </i>
    <i name="pawaedc">   -546.95196463 </i>
    <i name="eentropy">      0.00057979 </i>
    <i name="bandstr">   -189.78721909 </i>
    <i name="atom">    865.82426828 </i>
    <i name="e_fr_energy">     -9.52845418 </i>
    <i name="e_wo_entrp">     -9.52903397 </i>
    <i name="e_0_energy">     -9.52845418 </i>
   </energy>
  </scstep>
  <structure>
   <crystal>
    <varray name="basis" >
     <v>      28.00000000       0.00000000       0.00000000 </v>
     <v>       0.00000000      28.00000000       0.00000000 </v>
     <v>       0.00000000       0.00000000      29.50000000 </v>
    </varray>
    <i name="volume">  23128.00000000 </i>
    <varray name="rec_basis" >
     <v>       0.03571429       0.00000000       0.00000000 </v>
     <v>       0.00000000       0.03571429       0.00000000 </v>
     <v>       0.00000000       0.00000000       0.03389831 </v>
    </varray>
   </crystal>
   <varray name="positions" >
    <v>       0.50000000       0.50000000       0.47987739 </v>
    <v>       0.50000000       0.50000000       0.52520736 </v>
   </varray>
  </structure>
  <varray name="forces" >
   <v>       0.00000000       0.00000000       5.09535395 </v>
   <v>       0.00000000       0.00000000      -5.09535395 </v>
  </varray>
  <varray name="stress" >
   <v>      -0.11055695       0.00000000       0.00000000 </v>
   <v>       0.00000000      -0.11055695       0.00000000 </v>
   <v>       0.00000000       0.00000000      -0.54422149 </v>
  </varray>
  <energy>
   <i name="e_fr_energy">     -9.52845418 </i>
   <i name="e_wo_entrp">     -9.52864744 </i>
   <i name="e_0_energy">      0.00057979 </i>
  </energy>
  <time name="totalsc"> 1141.33 1142.01</time>
 </calculation>
 <calculation>
  <scstep>
   <time name="dav">    8.15    8.15</time>
   <time name="total">   60.14   60.15</time>
   <energy>
    <i name="alphaZ">      0.02383034 </i>
    <i name="ewald">    538.81472623 </i>
    <i name="hartreedc">  -1175.01959053 </i>
    <i name="XCdc">     58.39598258 </i>
    <i name="pawpsdc">    543.27411401 </i>
    <i name="pawaedc">   -546.95437509 </i>
    <i name="eentropy">      0.00000000 </i>
    <i name="bandstr">   -271.16402272 </i>
    <i name="atom">    865.82426828 </i>
    <i name="e_fr_energy">     13.19493310 </i>
    <i name="e_wo_entrp">     13.19493310 </i>
    <i name="e_0_energy">     13.19493310 </i>
   </energy>
  </scstep>
  <scstep>
   <time name="diag">    1.94    1.94</time>
   <time name="diis">    5.84    5.84</time>
   <time name="orth">    0.05    0.05</time>
   <time name="total">   61.75   61.78</time>
   <energy>
    <i name="e_fr_energy">     11.83700174 </i>
    <i name="e_wo_entrp">     11.83700174 </i>
    <i name="e_0_energy">     11.83700174 </i>
   </energy>
  </scstep>
  <scstep>
   <time name="diag">    1.85    1.85</time>
   <time name="diis">    6.05    6.05</time>
   <time name="orth">    0.05    0.05</time>
   <time name="total">   61.23   61.26</time>
   <energy>
    <i name="e_fr_energy">     12.02247312 </i>
    <i name="e_wo_entrp">     12.02189333 </i>
    <i name="e_0_energy">     12.02247312 </i>
   </energy>
  </scstep>
  <scstep>
   <time name="diag">    1.76    1.76</time>
   <time name="diis">    5.67    5.67</time>
   <time name="orth">    0.05    0.05</time>
   <time name="total">   61.60   61.64</time>
   <energy>
    <i name="e_fr_energy">     12.17023794 </i>
    <i name="e_wo_entrp">     12.17023794 </i>
    <i name="e_0_energy">     12.17023794 </i>
   </energy>
  </scstep>
  <scstep>
   <time name="diag">    1.80    1.80</time>
   <time name="diis">    5.68    5.68</time>
   <time name="orth">    0.05    0.05</time>
   <time name="total">   61.36   61.38</time>
   <energy>
    <i name="e_fr_energy">     12.21436058 </i>
    <i name="e_wo_entrp">     12.21378079 </i>
    <i name="e_0_energy">     12.21436058 </i>
   </energy>
  </scstep>
  <scstep>
   <time name="diag">    1.81    1.81</time>
   <time name="diis">    5.94    5.94</time>
   <time name="orth">    0.05    0.05</time>
   <time name="total">   61.91   61.94</time>
   <energy>
    <i name="e_fr_energy">     12.21395555 </i>
    <i name="e_wo_entrp">     12.21395555 </i>
    <i name="e_0_energy">     12.21395555 </i>
   </energy>
  </scstep>
  <scstep>
   <time name="diag">    1.82    1.82</time>
   <time name="diis">    6.93    6.93</time>
   <time name="orth">    0.05    0.06</time>
   <time name="total">   63.61   63.63</time>
   <energy>
    <i name="e_fr_energy">     12.20797583 </i>
    <i name="e_wo_entrp">     12.20797583 </i>
    <i name="e_0_energy">     12.20797583 </i>
   </energy>
  </scstep>
  <scstep>
   <time name="diag">    1.79    1.80</time>
   <time name="diis">    5.95    5.95</time>
   <time name="orth">    0.05    0.05</time>
   <time name="total">   62.46   62.48</time>
   <energy>
    <i name="e_fr_energy">     12.20032956 </i>
    <i name="e_wo_entrp">     12.20032956 </i>
    <i name="e_0_energy">     12.20032956 </i>
   </energy>
  </scstep>
  <scstep>
   <time name="diag">    1.80    1.80</time>
   <time name="diis">    5.96    5.96</time>
   <time name="orth">    0.05    0.05</time>
   <time name="total">   62.85   62.87</time>
   <energy>
    <i name="e_fr_energy">     12.19892529 </i>
    <i name="e_wo_entrp">     12.19892529 </i>
    <i name="e_0_energy">     12.19892529 </i>
   </energy>
  </scstep>
  <scstep>
   <time name="diag">    1.89    1.89</time>
   <time name="diis">    6.13    6.13</time>
   <time name="orth">    0.05    0.05</time>
   <time name="total">   63.82   63.85</time>
   <energy>
    <i name="e_fr_energy">     12.19326292 </i>
    <i name="e_wo_entrp">     12.19326292 </i>
    <i name="e_0_energy">     12.19326292 </i>
   </energy>
  </scstep>
  <scstep>
   <time name="diag">    1.80    1.80</time>
   <time name="diis">    6.32    6.32</time>
   <time name="orth">    0.05    0.05</time>
   <time name="total">   63.45   63.46</time>
   <energy>
    <i name="e_fr_energy">     12.19252140 </i>
    <i name="e_wo_entrp">     12.19252140 </i>
    <i name="e_0_energy">     12.19252140 </i>
   </energy>
  </scstep>
  <scstep>
   <time name="diag">    1.79    1.79</time>
   <time name="diis">    5.92    5.92</time>
   <time name="orth">    0.05    0.05</time>
   <time name="total">   62.48   63.77</time>
   <energy>
    <i name="e_fr_energy">     12.19162549 </i>
    <i name="e_wo_entrp">     12.19162549 </i>
    <i name="e_0_energy">     12.19162549 </i>
   </energy>
  </scstep>
  <scstep>
   <time name="diag">    1.80    1.80</time>
   <time name="diis">    5.82    5.82</time>
   <time name="orth">    0.05    0.05</time>
   <time name="total">   61.48   61.50</time>
   <energy>
    <i name="e_fr_energy">     12.19029592 </i>
    <i name="e_wo_entrp">     12.19029592 </i>
    <i name="e_0_energy">     12.19029592 </i>
   </energy>
  </scstep>
  <scstep>
   <time name="diag">    1.77    1.78</time>
   <time name="diis">    5.69    5.69</time>
   <time name="orth">    0.05    0.05</time>
   <time name="total">   60.90   60.91</time>
   <energy>
    <i name="e_fr_energy">     12.18985545 </i>
    <i name="e_wo_entrp">     12.18985545 </i>
    <i name="e_0_energy">     12.18985545 </i>
   </energy>
  </scstep>
  <scstep>
   <time name="diag">    1.95    1.95</time>
   <time name="diis">    6.43    6.43</time>
   <time name="orth">    0.05    0.05</time>
   <time name="total">   62.24   62.27</time>
   <energy>
    <i name="e_fr_energy">     12.18937366 </i>
    <i name="e_wo_entrp">     12.18937366 </i>
    <i name="e_0_energy">     12.18937366 </i>
   </energy>
  </scstep>
  <scstep>
   <time name="diag">    1.78    1.78</time>
   <time name="diis">    5.38    5.38</time>
   <time name="orth">    0.05    0.05</time>
   <time name="total">   60.37   60.44</time>
   <energy>
    <i name="e_fr_energy">     12.18924533 </i>
    <i name="e_wo_entrp">     12.18924533 </i>
    <i name="e_0_energy">     12.18924533 </i>
   </energy>
  </scstep>
  <scstep>
   <time name="diag">    1.79    1.79</time>
   <time name="diis">    5.02    5.02</time>
   <time name="orth">    0.05    0.05</time>
   <time name="total">   59.66   59.68</time>
   <energy>
    <i name="e_fr_energy">     12.18912713 </i>
    <i name="e_wo_entrp">     12.18912713 </i>
    <i name="e_0_energy">     12.18912713 </i>
   </energy>
  </scstep>
  <scstep>
   <time name="diag">    1.79    1.79</time>
   <time name="diis">    4.98    4.98</time>
   <time name="orth">    0.05    0.05</time>
   <time name="total">   59.17   59.20</time>
   <energy>
    <i name="e_fr_energy">     12.18904229 </i>
    <i name="e_wo_entrp">     12.18904229 </i>
    <i name="e_0_energy">     12.18904229 </i>
   </energy>
  </scstep>
  <scstep>
   <time name="diag">    1.89    1.90</time>
   <time name="diis">    5.13    5.13</time>
   <time name="orth">    0.05    0.05</time>
   <time name="total">   60.24   60.28</time>
   <energy>
    <i name="e_fr_energy">     12.18900062 </i>
    <i name="e_wo_entrp">     12.18900062 </i>
    <i name="e_0_energy">     12.18900062 </i>
   </energy>
  </scstep>
  <scstep>
   <time name="diag">    1.78    1.78</time>
   <time name="diis">    4.34    4.34</time>
   <time name="orth">    0.05    0.05</time>
   <time name="total">   59.05   59.06</time>
   <energy>
    <i name="e_fr_energy">     12.18898828 </i>
    <i name="e_wo_entrp">     12.18898828 </i>
    <i name="e_0_energy">     12.18898828 </i>
   </energy>
  </scstep>
  <scstep>
   <time name="diag">    1.79    1.79</time>
   <time name="diis">    4.53    4.53</time>
   <time name="orth">    0.05    0.05</time>
   <time name="total">   59.15   59.19</time>
   <energy>
    <i name="e_fr_energy">     12.18898475 </i>
    <i name="e_wo_entrp">     12.18898475 </i>
    <i name="e_0_energy">     12.18898475 </i>
   </energy>
  </scstep>
  <scstep>
   <time name="diag">    1.78    1.78</time>
   <time name="diis">    3.92    3.92</time>
   <time name="orth">    0.05    0.05</time>
   <time name="total">   58.71   58.73</time>
   <energy>
    <i name="e_fr_energy">     12.18897836 </i>
    <i name="e_wo_entrp">     12.18897836 </i>
    <i name="e_0_energy">     12.18897836 </i>
   </energy>
  </scstep>
  <scstep>
   <time name="diag">    1.91    1.91</time>
   <time name="diis">    4.32    4.32</time>
   <time name="orth">    0.06    0.06</time>
   <time name="total">   59.83   59.87</time>
   <energy>
    <i name="e_fr_energy">     12.18897341 </i>
    <i name="e_wo_entrp">     12.18897341 </i>
    <i name="e_0_energy">     12.18897341 </i>
   </energy>
  </scstep>
  <scstep>
   <time name="diag">    1.79    1.79</time>
   <time name="diis">    3.86    3.86</time>
   <time name="orth">    0.05    0.05</time>
   <time name="total">   58.63   58.69</time>
   <energy>
    <i name="e_fr_energy">     12.18897166 </i>
    <i name="e_wo_entrp">     12.18897166 </i>
    <i name="e_0_energy">     12.18897166 </i>
   </energy>
  </scstep>
  <scstep>
   <time name="diag">    1.79    1.79</time>
   <time name="diis">    3.74    3.74</time>
   <time name="orth">    0.05    0.05</time>
   <time name="total">   53.79   53.81</time>
   <energy>
    <i name="alphaZ">      0.02383034 </i>
    <i name="ewald">    538.81472623 </i>
    <i name="hartreedc">  -1209.01121441 </i>
    <i name="XCdc">     60.13868791 </i>
    <i name="pawpsdc">    812.43978756 </i>
    <i name="pawaedc">   -818.31755676 </i>
    <i name="eentropy">      0.00000000 </i>
    <i name="bandstr">   -237.72355826 </i>
    <i name="atom">    865.82426828 </i>
    <i name="e_fr_energy">     12.18897089 </i>
    <i name="e_wo_entrp">     12.18897089 </i>
    <i name="e_0_energy">     12.18897089 </i>
   </energy>
  </scstep>
  <structure>
   <crystal>
    <varray name="basis" >
     <v>      28.00000000       0.00000000       0.00000000 </v>
     <v>       0.00000000      28.00000000       0.00000000 </v>
     <v>       0.00000000       0.00000000      29.50000000 </v>
    </varray>
    <i name="volume">  23128.00000000 </i>
    <varray name="rec_basis" >
     <v>       0.03571429       0.00000000       0.00000000 </v>
     <v>       0.00000000       0.03571429       0.00000000 </v>
     <v>       0.00000000       0.00000000       0.03389831 </v>
    </varray>
   </crystal>
   <varray name="positions" >
    <v>       0.50000000       0.50000000       0.48885527 </v>
    <v>       0.50000000       0.50000000       0.51622947 </v>
   </varray>
  </structure>
  <varray name="forces" >
   <v>       0.00000000       0.00000000    -174.09738763 </v>
   <v>       0.00000000       0.00000000     174.09738763 </v>
  </varray>
  <varray name="stress" >
   <v>      -0.14112099       0.00000000       0.00000000 </v>
   <v>       0.00000000      -0.14112099       0.00000000 </v>
   <v>       0.00000000       0.00000000       9.67457659 </v>
  </varray>
  <energy>
   <i name="e_fr_energy">     12.18897089 </i>
   <i name="e_wo_entrp">     12.18897089 </i>
   <i name="e_0_energy">      0.00000000 </i>
  </energy>
  <time name="totalsc"> 1588.46 1590.47</time>
 </calculation>
 <calculation>
  <scstep>
   <time name="dav">    9.86    9.86</time>
   <time name="total">   61.65   61.66</time>
   <energy>
    <i name="alphaZ">      0.02383034 </i>
    <i name="ewald">    288.99352439 </i>
    <i name="hartreedc">  -1053.70171305 </i>
    <i name="XCdc">     56.71898841 </i>
    <i name="pawpsdc">    812.43976208 </i>
    <i name="pawaedc">   -818.31752574 </i>
    <i name="eentropy">      0.00000000 </i>
    <i name="bandstr">   -162.62510633 </i>
    <i name="atom">    865.82426828 </i>
    <i name="e_fr_energy">    -10.64397161 </i>
    <i name="e_wo_entrp">    -10.64397161 </i>
    <i name="e_0_energy">    -10.64397161 </i>
   </energy>
  </scstep>
  <scstep>
   <time name="diag">    1.79    1.79</time>
   <time name="diis">    5.71    5.71</time>
   <time name="orth">    0.05    0.05</time>
   <time name="total">   61.12   61.15</time>
   <energy>
    <i name="e_fr_energy">     -9.42389641 </i>
    <i name="e_wo_entrp">     -9.42447620 </i>
    <i name="e_0_energy">     -9.42389641 </i>
   </energy>
  </scstep>
  <scstep>
   <time name="diag">    1.79    1.79</time>
   <time name="diis">    5.68    5.68</time>
   <time name="orth">    0.05    0.05</time>
   <time name="total">   61.15   61.17</time>
   <energy>
    <i name="e_fr_energy">     -9.55023763 </i>
    <i name="e_wo_entrp">     -9.55023763 </i>
    <i name="e_0_energy">     -9.55023763 </i>
   </energy>
  </scstep>
  <scstep>
   <time name="diag">    1.91    1.91</time>
   <time name="diis">    6.35    6.35</time>
   <time name="orth">    0.05    0.05</time>
   <time name="total">   62.63   62.67</time>
   <energy>
    <i name="e_fr_energy">     -9.58340444 </i>
    <i name="e_wo_entrp">     -9.58398423 </i>
    <i name="e_0_energy">     -9.58340444 </i>
   </energy>
  </scstep>
  <scstep>
   <time name="diag">    1.79    1.79</time>
   <time name="diis">    5.81    5.81</time>
   <time name="orth">    0.06    0.06</time>
   <time name="total">   61.92   61.96</time>
   <energy>
    <i name="e_fr_energy">     -9.58328923 </i>
    <i name="e_wo_entrp">     -9.58328923 </i>
    <i name="e_0_energy">     -9.58328923 </i>
   </energy>
  </scstep>
  <scstep>
   <time name="diag">    1.80    1.80</time>
   <time name="diis">    5.67    5.67</time>
   <time name="orth">    0.05    0.05</time>
   <time name="total">   61.90   61.92</time>
   <energy>
    <i name="e_fr_energy">     -9.59284006 </i>
    <i name="e_wo_entrp">     -9.59341985 </i>
    <i name="e_0_energy">     -9.59284006 </i>
   </energy>
  </scstep>
  <scstep>
   <time name="diag">    1.80    1.80</time>
   <time name="diis">    5.64    5.64</time>
   <time name="orth">    0.05    0.05</time>
   <time name="total">   61.91   61.93</time>
   <energy>
    <i name="e_fr_energy">     -9.59436865 </i>
    <i name="e_wo_entrp">     -9.59494844 </i>
    <i name="e_0_energy">     -9.59436865 </i>
   </energy>
  </scstep>
  <scstep>
   <time name="diag">    1.79    1.79</time>
   <time name="diis">    5.68    5.68</time>
   <time name="orth">    0.05    0.05</time>
   <time name="total">   62.38   62.41</time>
   <energy>
    <i name="e_fr_energy">     -9.59589746 </i>
    <i name="e_wo_entrp">     -9.59647725 </i>
    <i name="e_0_energy">     -9.59589746 </i>
   </energy>
  </scstep>
  <scstep>
   <time name="diag">    1.91    1.91</time>
   <time name="diis">    6.18    6.18</time>
   <time name="orth">    0.05    0.05</time>
   <time name="total">   63.28   63.29</time>
   <energy>
    <i name="e_fr_energy">     -9.59756136 </i>
    <i name="e_wo_entrp">     -9.59814115 </i>
    <i name="e_0_energy">     -9.59756136 </i>
   </energy>
  </scstep>
  <scstep>
   <time name="diag">    1.80    1.80</time>
   <time name="diis">    5.67    5.67</time>
   <time name="orth">    0.05    0.05</time>
   <time name="total">   62.28   62.30</time>
   <energy>
    <i name="e_fr_energy">     -9.59866621 </i>
    <i name="e_wo_entrp">     -9.59924600 </i>
    <i name="e_0_energy">     -9.59866621 </i>
   </energy>
  </scstep>
  <scstep>
   <time name="diag">    1.81    1.81</time>
   <time name="diis">    5.69    5.69</time>
   <time name="orth">    0.05    0.05</time>
   <time name="total">   61.67   61.68</time>
   <energy>
    <i name="e_fr_energy">     -9.59970516 </i>
    <i name="e_wo_entrp">     -9.60028495 </i>
    <i name="e_0_energy">     -9.59970516 </i>
   </energy>
  </scstep>
  <scstep>
   <time name="diag">    1.80    1.80</time>
   <time name="diis">    5.47    5.47</time>
   <time name="orth">    0.05    0.05</time>
   <time name="total">   60.85   60.86</time>
   <energy>
    <i name="e_fr_energy">     -9.60018113 </i>
    <i name="e_wo_entrp">     -9.60076092 </i>
    <i name="e_0_energy">     -9.60018113 </i>
   </energy>
  </scstep>
  <scstep>
   <time name="diag">    1.90    1.90</time>
   <time name="diis">    5.76    5.77</time>
   <time name="orth">    0.05    0.05</time>
   <time name="total">   61.36   61.38</time>
   <energy>
    <i name="e_fr_energy">     -9.60130340 </i>
    <i name="e_wo_entrp">     -9.60130340 </i>
    <i name="e_0_energy">     -9.60130340 </i>
   </energy>
  </scstep>
  <scstep>
   <time name="diag">    1.79    1.79</time>
   <time name="diis">    5.57    5.57</time>
   <time name="orth">    0.05    0.05</time>
   <time name="total">   60.14   60.15</time>
   <energy>
    <i name="e_fr_energy">     -9.60153964 </i>
    <i name="e_wo_entrp">     -9.60153964 </i>
    <i name="e_0_energy">     -9.60153964 </i>
   </energy>
  </scstep>
  <scstep>
   <time name="diag">    1.78    1.78</time>
   <time name="diis">    4.89    4.89</time>
   <time name="orth">    0.05    0.05</time>
   <time name="total">   59.53   59.54</time>
   <energy>
    <i name="e_fr_energy">     -9.60166651 </i>
    <i name="e_wo_entrp">     -9.60166651 </i>
    <i name="e_0_energy">     -9.60166651 </i>
   </energy>
  </scstep>
  <scstep>
   <time name="diag">    1.81    1.81</time>
   <time name="diis">    5.25    5.25</time>
   <time name="orth">    0.05    0.05</time>
   <time name="total">   59.44   59.47</time>
   <energy>
    <i name="e_fr_energy">     -9.60184731 </i>
    <i name="e_wo_entrp">     -9.60184731 </i>
    <i name="e_0_energy">     -9.60184731 </i>
   </energy>
  </scstep>
  <scstep>
   <time name="diag">    1.93    1.93</time>
   <time name="diis">    4.51    4.51</time>
   <time name="orth">    0.05    0.05</time>
   <time name="total">   59.57   59.58</time>
   <energy>
    <i name="e_fr_energy">     -9.60186775 </i>
    <i name="e_wo_entrp">     -9.60186775 </i>
    <i name="e_0_energy">     -9.60186775 </i>
   </energy>
  </scstep>
  <scstep>
   <time name="diag">    1.79    1.79</time>
   <time name="diis">    4.51    4.51</time>
   <time name="orth">    0.06    0.06</time>
   <time name="total">   58.99   59.00</time>
   <energy>
    <i name="e_fr_energy">     -9.60189118 </i>
    <i name="e_wo_entrp">     -9.60189118 </i>
    <i name="e_0_energy">     -9.60189118 </i>
   </energy>
  </scstep>
  <scstep>
   <time name="diag">    1.79    1.79</time>
   <time name="diis">    4.33    4.33</time>
   <time name="orth">    0.05    0.05</time>
   <time name="total">   59.10   59.12</time>
   <energy>
    <i name="e_fr_energy">     -9.60132768 </i>
    <i name="e_wo_entrp">     -9.60190748 </i>
    <i name="e_0_energy">     -9.60132768 </i>
   </energy>
  </scstep>
  <scstep>
   <time name="diag">    1.79    1.79</time>
   <time name="diis">    4.14    4.14</time>
   <time name="orth">    0.05    0.05</time>
   <time name="total">   58.67   58.73</time>
   <energy>
    <i name="e_fr_energy">     -9.60133127 </i>
    <i name="e_wo_entrp">     -9.60191106 </i>
    <i name="e_0_energy">     -9.60133127 </i>
   </energy>
  </scstep>
  <scstep>
   <time name="diag">    1.86    1.86</time>
   <time name="diis">    4.44    4.44</time>
   <time name="orth">    0.05    0.05</time>
   <time name="total">   59.50   59.52</time>
   <energy>
    <i name="e_fr_energy">     -9.60133291 </i>
    <i name="e_wo_entrp">     -9.60191270 </i>
    <i name="e_0_energy">     -9.60133291 </i>
   </energy>
  </scstep>
  <scstep>
   <time name="diag">    1.79    1.79</time>
   <time name="diis">    4.19    4.19</time>
   <time name="orth">    0.05    0.05</time>
   <time name="total">   54.02   54.06</time>
   <energy>
    <i name="alphaZ">      0.02383034 </i>
    <i name="ewald">    288.99352439 </i>
    <i name="hartreedc">  -1025.29695568 </i>
    <i name="XCdc">     54.90405627 </i>
    <i name="pawpsdc">    546.55813123 </i>
    <i name="pawaedc">   -550.25175744 </i>
    <i name="eentropy">      0.00057979 </i>
    <i name="bandstr">   -190.35700935 </i>
    <i name="atom">    865.82426828 </i>
    <i name="e_fr_energy">     -9.60133217 </i>
    <i name="e_wo_entrp">     -9.60191196 </i>
    <i name="e_0_energy">     -9.60133217 </i>
   </energy>
  </scstep>
  <structure>
   <crystal>
    <varray name="basis" >
     <v>      28.00000000       0.00000000       0.00000000 </v>
     <v>       0.00000000      28.00000000       0.00000000 </v>
     <v>       0.00000000       0.00000000      29.50000000 </v>
    </varray>
    <i name="volume">  23128.00000000 </i>
    <varray name="rec_basis" >
     <v>       0.03571429       0.00000000       0.00000000 </v>
     <v>       0.00000000       0.03571429       0.00000000 </v>
     <v>       0.00000000       0.00000000       0.03389831 </v>
    </varray>
   </crystal>
   <varray name="positions" >
    <v>       0.50000000       0.50000000       0.48013267 </v>
    <v>       0.50000000       0.50000000       0.52495207 </v>
   </varray>
  </structure>
  <varray name="forces" >
   <v>       0.00000000       0.00000000       4.56251406 </v>
   <v>       0.00000000       0.00000000      -4.56251406 </v>
  </varray>
  <varray name="stress" >
   <v>      -0.11067695       0.00000000       0.00000000 </v>
   <v>       0.00000000      -0.11067695       0.00000000 </v>
   <v>       0.00000000       0.00000000      -0.49164891 </v>
  </varray>
  <energy>
   <i name="e_fr_energy">     -9.60133217 </i>
   <i name="e_wo_entrp">     -9.60152543 </i>
   <i name="e_0_energy">      0.00057979 </i>
  </energy>
  <time name="totalsc"> 1402.35 1402.91</time>
 </calculation>
 <calculation>
  <scstep>
   <time name="dav">   10.49   10.49</time>
   <time name="total">   62.78   62.80</time>
   <energy>
    <i name="alphaZ">      0.02383034 </i>
    <i name="ewald">    292.92851653 </i>
    <i name="hartreedc">  -1028.34609785 </i>
    <i name="XCdc">     54.95154527 </i>
    <i name="pawpsdc">    546.55784469 </i>
    <i name="pawaedc">   -550.25146968 </i>
    <i name="eentropy">      0.00057979 </i>
    <i name="bandstr">   -191.34634166 </i>
    <i name="atom">    865.82426828 </i>
    <i name="e_fr_energy">     -9.65732430 </i>
    <i name="e_wo_entrp">     -9.65790410 </i>
    <i name="e_0_energy">     -9.65732430 </i>
   </energy>
  </scstep>
  <scstep>
   <time name="diag">    1.78    1.78</time>
   <time name="diis">    5.82    5.82</time>
   <time name="orth">    0.05    0.05</time>
   <time name="total">   59.87   59.89</time>
   <energy>
    <i name="e_fr_energy">     -9.65733394 </i>
    <i name="e_wo_entrp">     -9.65791373 </i>
    <i name="e_0_energy">     -9.65733394 </i>
   </energy>
  </scstep>
  <scstep>
   <time name="diag">    1.79    1.79</time>
   <time name="diis">    5.71    5.71</time>
   <time name="orth">    0.05    0.05</time>
   <time name="total">   59.61   59.63</time>
   <energy>
    <i name="e_fr_energy">     -9.65748166 </i>
    <i name="e_wo_entrp">     -9.65806145 </i>
    <i name="e_0_energy">     -9.65748166 </i>
   </energy>
  </scstep>
  <scstep>
   <time name="diag">    1.80    1.80</time>
   <time name="diis">    5.66    5.66</time>
   <time name="orth">    0.05    0.05</time>
   <time name="total">   59.73   59.75</time>
   <energy>
    <i name="e_fr_energy">     -9.65837259 </i>
    <i name="e_wo_entrp">     -9.65837259 </i>
    <i name="e_0_energy">     -9.65837259 </i>
   </energy>
  </scstep>
  <scstep>
   <time name="diag">    1.86    1.86</time>
   <time name="diis">    6.16    6.16</time>
   <time name="orth">    0.05    0.05</time>
   <time name="total">   60.43   60.47</time>
   <energy>
    <i name="e_fr_energy">     -9.65849819 </i>
    <i name="e_wo_entrp">     -9.65849819 </i>
    <i name="e_0_energy">     -9.65849819 </i>
   </energy>
  </scstep>
  <scstep>
   <time name="diag">    1.80    1.80</time>
   <time name="diis">    5.56    5.56</time>
   <time name="orth">    0.05    0.05</time>
   <time name="total">   59.54   59.56</time>
   <energy>
    <i name="e_fr_energy">     -9.65855354 </i>
    <i name="e_wo_entrp">     -9.65855354 </i>
    <i name="e_0_energy">     -9.65855354 </i>
   </energy>
  </scstep>
  <scstep>
   <time name="diag">    1.81    1.81</time>
   <time name="diis">    4.70    4.70</time>
   <time name="orth">    0.05    0.05</time>
   <time name="total">   58.77   58.78</time>
   <energy>
    <i name="e_fr_energy">     -9.65858557 </i>
    <i name="e_wo_entrp">     -9.65858557 </i>
    <i name="e_0_energy">     -9.65858557 </i>
   </energy>
  </scstep>
  <scstep>
   <time name="diag">    1.80    1.80</time>
   <time name="diis">    4.11    4.11</time>
   <time name="orth">    0.05    0.05</time>
   <time name="total">   57.93   57.95</time>
   <energy>
    <i name="e_fr_energy">     -9.65858772 </i>
    <i name="e_wo_entrp">     -9.65858772 </i>
    <i name="e_0_energy">     -9.65858772 </i>
   </energy>
  </scstep>
  <scstep>
   <time name="diag">    1.88    1.88</time>
   <time name="diis">    4.45    4.45</time>
   <time name="orth">    0.05    0.05</time>
   <time name="total">   58.86   58.88</time>
   <energy>
    <i name="e_fr_energy">     -9.65859047 </i>
    <i name="e_wo_entrp">     -9.65859047 </i>
    <i name="e_0_energy">     -9.65859047 </i>
   </energy>
  </scstep>
  <scstep>
   <time name="diag">    1.81    1.81</time>
   <time name="diis">    4.16    4.16</time>
   <time name="orth">    0.05    0.05</time>
   <time name="total">   58.27   58.31</time>
   <energy>
    <i name="e_fr_energy">     -9.65859305 </i>
    <i name="e_wo_entrp">     -9.65859305 </i>
    <i name="e_0_energy">     -9.65859305 </i>
   </energy>
  </scstep>
  <scstep>
   <time name="diag">    1.80    1.80</time>
   <time name="diis">    3.77    3.77</time>
   <time name="orth">    0.05    0.05</time>
   <time name="total">   57.91   57.93</time>
   <energy>
    <i name="e_fr_energy">     -9.65859484 </i>
    <i name="e_wo_entrp">     -9.65859484 </i>
    <i name="e_0_energy">     -9.65859484 </i>
   </energy>
  </scstep>
  <scstep>
   <time name="diag">    1.80    1.80</time>
   <time name="diis">    4.06    4.06</time>
   <time name="orth">    0.05    0.05</time>
   <time name="total">   57.92   57.94</time>
   <energy>
    <i name="e_fr_energy">     -9.65859811 </i>
    <i name="e_wo_entrp">     -9.65859811 </i>
    <i name="e_0_energy">     -9.65859811 </i>
   </energy>
  </scstep>
  <scstep>
   <time name="diag">    1.89    1.89</time>
   <time name="diis">    3.92    3.92</time>
   <time name="orth">    0.05    0.05</time>
   <time name="total">   54.27   54.28</time>
   <energy>
    <i name="alphaZ">      0.02383034 </i>
    <i name="ewald">    292.92851653 </i>
    <i name="hartreedc">  -1028.83882228 </i>
    <i name="XCdc">     54.98504276 </i>
    <i name="pawpsdc">    549.59243810 </i>
    <i name="pawaedc">   -553.29865696 </i>
    <i name="eentropy">      0.00000000 </i>
    <i name="bandstr">   -190.87521538 </i>
    <i name="atom">    865.82426828 </i>
    <i name="e_fr_energy">     -9.65859862 </i>
    <i name="e_wo_entrp">     -9.65859862 </i>
    <i name="e_0_energy">     -9.65859862 </i>
   </energy>
  </scstep>
  <structure>
   <crystal>
    <varray name="basis" >
     <v>      28.00000000       0.00000000       0.00000000 </v>
     <v>       0.00000000      28.00000000       0.00000000 </v>
     <v>       0.00000000       0.00000000      29.50000000 </v>
    </varray>
    <i name="volume">  23128.00000000 </i>
    <varray name="rec_basis" >
     <v>       0.03571429       0.00000000       0.00000000 </v>
     <v>       0.00000000       0.03571429       0.00000000 </v>
     <v>       0.00000000       0.00000000       0.03389831 </v>
    </varray>
   </crystal>
   <varray name="positions" >
    <v>       0.50000000       0.50000000       0.48035542 </v>
    <v>       0.50000000       0.50000000       0.52472932 </v>
   </varray>
  </structure>
  <varray name="forces" >
   <v>       0.00000000       0.00000000       4.04916903 </v>
   <v>       0.00000000       0.00000000      -4.04916903 </v>
  </varray>
  <varray name="stress" >
   <v>      -0.11096090       0.00000000       0.00000000 </v>
   <v>       0.00000000      -0.11096090       0.00000000 </v>
   <v>       0.00000000       0.00000000      -0.44221802 </v>
  </varray>
  <energy>
   <i name="e_fr_energy">     -9.65859862 </i>
   <i name="e_wo_entrp">     -9.65859862 </i>
   <i name="e_0_energy">      0.00000000 </i>
  </energy>
  <time name="totalsc">  833.78  834.10</time>
 </calculation>
 <calculation>
  <scstep>
   <time name="dav">   12.23   12.23</time>
   <time name="total">   64.29   64.30</time>
   <energy>
    <i name="alphaZ">      0.02383034 </i>
    <i name="ewald">    326.97636259 </i>
    <i name="hartreedc">  -1054.29730867 </i>
    <i name="XCdc">     55.42173368 </i>
    <i name="pawpsdc">    549.59303850 </i>
    <i name="pawaedc">   -553.29926391 </i>
    <i name="eentropy">      0.00057979 </i>
    <i name="bandstr">   -199.99516457 </i>
    <i name="atom">    865.82426828 </i>
    <i name="e_fr_energy">     -9.75192397 </i>
    <i name="e_wo_entrp">     -9.75250376 </i>
    <i name="e_0_energy">     -9.75192397 </i>
   </energy>
  </scstep>
  <scstep>
   <time name="diag">    1.80    1.80</time>
   <time name="diis">    5.71    5.71</time>
   <time name="orth">    0.05    0.05</time>
   <time name="total">   60.49   60.51</time>
   <energy>
    <i name="e_fr_energy">     -9.77182280 </i>
    <i name="e_wo_entrp">     -9.77240259 </i>
    <i name="e_0_energy">     -9.77182280 </i>
   </energy>
  </scstep>
  <scstep>
   <time name="diag">    1.79    1.79</time>
   <time name="diis">    5.69    5.70</time>
   <time name="orth">    0.05    0.05</time>
   <time name="total">   60.07   60.10</time>
   <energy>
    <i name="e_fr_energy">     -9.78167486 </i>
    <i name="e_wo_entrp">     -9.78167486 </i>
    <i name="e_0_energy">     -9.78167486 </i>
   </energy>
  </scstep>
  <scstep>
   <time name="diag">    1.81    1.81</time>
   <time name="diis">    5.64    5.64</time>
   <time name="orth">    0.05    0.05</time>
   <time name="total">   60.17   60.19</time>
   <energy>
    <i name="e_fr_energy">     -9.78297001 </i>
    <i name="e_wo_entrp">     -9.78354980 </i>
    <i name="e_0_energy">     -9.78297001 </i>
   </energy>
  </scstep>
  <scstep>
   <time name="diag">    1.91    1.91</time>
   <time name="diis">    6.10    6.10</time>
   <time name="orth">    0.05    0.05</time>
   <time name="total">   61.46   61.47</time>
   <energy>
    <i name="e_fr_energy">     -9.78475829 </i>
    <i name="e_wo_entrp">     -9.78475829 </i>
    <i name="e_0_energy">     -9.78475829 </i>
   </energy>
  </scstep>
  <scstep>
   <time name="diag">    1.80    1.80</time>
   <time name="diis">    5.94    5.94</time>
   <time name="orth">    0.05    0.05</time>
   <time name="total">   60.97   61.19</time>
   <energy>
    <i name="e_fr_energy">     -9.78545646 </i>
    <i name="e_wo_entrp">     -9.78545646 </i>
    <i name="e_0_energy">     -9.78545646 </i>
   </energy>
  </scstep>
  <scstep>
   <time name="diag">    1.80    1.80</time>
   <time name="diis">    5.68    5.68</time>
   <time name="orth">    0.05    0.05</time>
   <time name="total">   60.71   60.73</time>
   <energy>
    <i name="e_fr_energy">     -9.78561333 </i>
    <i name="e_wo_entrp">     -9.78561333 </i>
    <i name="e_0_energy">     -9.78561333 </i>
   </energy>
  </scstep>
  <scstep>
   <time name="diag">    1.93    1.93</time>
   <time name="diis">    5.94    5.95</time>
   <time name="orth">    0.05    0.05</time>
   <time name="total">   61.08   61.10</time>
   <energy>
    <i name="e_fr_energy">     -9.78573493 </i>
    <i name="e_wo_entrp">     -9.78573493 </i>
    <i name="e_0_energy">     -9.78573493 </i>
   </energy>
  </scstep>
  <scstep>
   <time name="diag">    1.84    1.84</time>
   <time name="diis">    5.87    5.87</time>
   <time name="orth">    0.05    0.05</time>
   <time name="total">   60.47   60.49</time>
   <energy>
    <i name="e_fr_energy">     -9.78531616 </i>
    <i name="e_wo_entrp">     -9.78589595 </i>
    <i name="e_0_energy">     -9.78531616 </i>
   </energy>
  </scstep>
  <scstep>
   <time name="diag">    1.75    1.75</time>
   <time name="diis">    5.42    5.42</time>
   <time name="orth">    0.05    0.05</time>
   <time name="total">   59.64   59.70</time>
   <energy>
    <i name="e_fr_energy">     -9.78545883 </i>
    <i name="e_wo_entrp">     -9.78603862 </i>
    <i name="e_0_energy">     -9.78545883 </i>
   </energy>
  </scstep>
  <scstep>
   <time name="diag">    1.79    1.79</time>
   <time name="diis">    5.00    5.00</time>
   <time name="orth">    0.05    0.05</time>
   <time name="total">   59.11   59.13</time>
   <energy>
    <i name="e_fr_energy">     -9.78610030 </i>
    <i name="e_wo_entrp">     -9.78610030 </i>
    <i name="e_0_energy">     -9.78610030 </i>
   </energy>
  </scstep>
  <scstep>
   <time name="diag">    1.80    1.80</time>
   <time name="diis">    5.35    5.35</time>
   <time name="orth">    0.05    0.05</time>
   <time name="total">   59.45   59.48</time>
   <energy>
    <i name="e_fr_energy">     -9.78618742 </i>
    <i name="e_wo_entrp">     -9.78618742 </i>
    <i name="e_0_energy">     -9.78618742 </i>
   </energy>
  </scstep>
  <scstep>
   <time name="diag">    1.89    1.89</time>
   <time name="diis">    5.07    5.08</time>
   <time name="orth">    0.05    0.05</time>
   <time name="total">   59.64   59.67</time>
   <energy>
    <i name="e_fr_energy">     -9.78621223 </i>
    <i name="e_wo_entrp">     -9.78621223 </i>
    <i name="e_0_energy">     -9.78621223 </i>
   </energy>
  </scstep>
  <scstep>
   <time name="diag">    1.79    1.79</time>
   <time name="diis">    4.43    4.43</time>
   <time name="orth">    0.05    0.05</time>
   <time name="total">   58.48   58.49</time>
   <energy>
    <i name="e_fr_energy">     -9.78566270 </i>
    <i name="e_wo_entrp">     -9.78624249 </i>
    <i name="e_0_energy">     -9.78566270 </i>
   </energy>
  </scstep>
  <scstep>
   <time name="diag">    1.79    1.79</time>
   <time name="diis">    4.17    4.17</time>
   <time name="orth">    0.05    0.05</time>
   <time name="total">   58.39   58.43</time>
   <energy>
    <i name="e_fr_energy">     -9.78567301 </i>
    <i name="e_wo_entrp">     -9.78625280 </i>
    <i name="e_0_energy">     -9.78567301 </i>
   </energy>
  </scstep>
  <scstep>
   <time name="diag">    1.79    1.79</time>
   <time name="diis">    3.89    3.89</time>
   <time name="orth">    0.05    0.05</time>
   <time name="total">   57.75   57.79</time>
   <energy>
    <i name="e_fr_energy">     -9.78567580 </i>
    <i name="e_wo_entrp">     -9.78625559 </i>
    <i name="e_0_energy">     -9.78567580 </i>
   </energy>
  </scstep>
  <scstep>
   <time name="diag">    1.88    1.88</time>
   <time name="diis">    3.93    3.93</time>
   <time name="orth">    0.05    0.05</time>
   <time name="total">   58.41   58.43</time>
   <energy>
    <i name="e_fr_energy">     -9.78567809 </i>
    <i name="e_wo_entrp">     -9.78625788 </i>
    <i name="e_0_energy">     -9.78567809 </i>
   </energy>
  </scstep>
  <scstep>
   <time name="diag">    1.94    1.94</time>
   <time name="diis">    3.82    3.82</time>
   <time name="orth">    0.05    0.05</time>
   <time name="total">   53.77   53.79</time>
   <energy>
    <i name="alphaZ">      0.02383034 </i>
    <i name="ewald">    326.97636259 </i>
    <i name="hartreedc">  -1058.79594521 </i>
    <i name="XCdc">     55.70911577 </i>
    <i name="pawpsdc">    579.90175275 </i>
    <i name="pawaedc">   -583.74361496 </i>
    <i name="eentropy">      0.00057979 </i>
    <i name="bandstr">   -195.68202826 </i>
    <i name="atom">    865.82426828 </i>
    <i name="e_fr_energy">     -9.78567892 </i>
    <i name="e_wo_entrp">     -9.78625871 </i>
    <i name="e_0_energy">     -9.78567892 </i>
   </energy>
  </scstep>
  <structure>
   <crystal>
    <varray name="basis" >
     <v>      28.00000000       0.00000000       0.00000000 </v>
     <v>       0.00000000      28.00000000       0.00000000 </v>
     <v>       0.00000000       0.00000000      29.50000000 </v>
    </varray>
    <i name="volume">  23128.00000000 </i>
    <varray name="rec_basis" >
     <v>       0.03571429       0.00000000       0.00000000 </v>
     <v>       0.00000000       0.03571429       0.00000000 </v>
     <v>       0.00000000       0.00000000       0.03389831 </v>
    </varray>
   </crystal>
   <varray name="positions" >
    <v>       0.50000000       0.50000000       0.48211246 </v>
    <v>       0.50000000       0.50000000       0.52297229 </v>
   </varray>
  </structure>
  <varray name="forces" >
   <v>       0.00000000       0.00000000      -2.40392085 </v>
   <v>       0.00000000       0.00000000       2.40392085 </v>
  </varray>
  <varray name="stress" >
   <v>      -0.11039703       0.00000000       0.00000000 </v>
   <v>       0.00000000      -0.11039703       0.00000000 </v>
   <v>       0.00000000       0.00000000       0.11539842 </v>
  </varray>
  <energy>
   <i name="e_fr_energy">     -9.78567892 </i>
   <i name="e_wo_entrp">     -9.78587218 </i>
   <i name="e_0_energy">      0.00057979 </i>
  </energy>
  <time name="totalsc"> 1142.53 1143.18</time>
 </calculation>
 <calculation>
  <scstep>
   <time name="dav">    9.86    9.86</time>
   <time name="total">   61.31   61.33</time>
   <energy>
    <i name="alphaZ">      0.02383034 </i>
    <i name="ewald">    313.62925068 </i>
    <i name="hartreedc">  -1049.04337177 </i>
    <i name="XCdc">     55.53792494 </i>
    <i name="pawpsdc">    579.90216546 </i>
    <i name="pawaedc">   -583.74402834 </i>
    <i name="eentropy">      0.00000000 </i>
    <i name="bandstr">   -191.94615084 </i>
    <i name="atom">    865.82426828 </i>
    <i name="e_fr_energy">     -9.81611125 </i>
    <i name="e_wo_entrp">     -9.81611125 </i>
    <i name="e_0_energy">     -9.81611125 </i>
   </energy>
  </scstep>
  <scstep>
   <time name="diag">    1.79    1.79</time>
   <time name="diis">    5.70    5.70</time>
   <time name="orth">    0.05    0.05</time>
   <time name="total">   59.52   59.55</time>
   <energy>
    <i name="e_fr_energy">     -9.81659789 </i>
    <i name="e_wo_entrp">     -9.81659789 </i>
    <i name="e_0_energy">     -9.81659789 </i>
   </energy>
  </scstep>
  <scstep>
   <time name="diag">    1.84    1.84</time>
   <time name="diis">    5.72    5.72</time>
   <time name="orth">    0.05    0.05</time>
   <time name="total">   59.76   59.77</time>
   <energy>
    <i name="e_fr_energy">     -9.81746577 </i>
    <i name="e_wo_entrp">     -9.81746577 </i>
    <i name="e_0_energy">     -9.81746577 </i>
   </energy>
  </scstep>
  <scstep>
   <time name="diag">    1.93    1.93</time>
   <time name="diis">    6.13    6.13</time>
   <time name="orth">    0.05    0.05</time>
   <time name="total">   60.29   60.32</time>
   <energy>
    <i name="e_fr_energy">     -9.81810367 </i>
    <i name="e_wo_entrp">     -9.81810367 </i>
    <i name="e_0_energy">     -9.81810367 </i>
   </energy>
  </scstep>
  <scstep>
   <time name="diag">    1.79    1.79</time>
   <time name="diis">    5.64    5.64</time>
   <time name="orth">    0.05    0.05</time>
   <time name="total">   59.39   59.41</time>
   <energy>
    <i name="e_fr_energy">     -9.81833893 </i>
    <i name="e_wo_entrp">     -9.81833893 </i>
    <i name="e_0_energy">     -9.81833893 </i>
   </energy>
  </scstep>
  <scstep>
   <time name="diag">    1.79    1.79</time>
   <time name="diis">    5.70    5.71</time>
   <time name="orth">    0.05    0.05</time>
   <time name="total">   59.39   59.42</time>
   <energy>
    <i name="e_fr_energy">     -9.81841974 </i>
    <i name="e_wo_entrp">     -9.81841974 </i>
    <i name="e_0_energy">     -9.81841974 </i>
   </energy>
  </scstep>
  <scstep>
   <time name="diag">    1.79    1.79</time>
   <time name="diis">    5.60    5.60</time>
   <time name="orth">    0.05    0.05</time>
   <time name="total">   59.01   59.04</time>
   <energy>
    <i name="e_fr_energy">     -9.81843398 </i>
    <i name="e_wo_entrp">     -9.81843398 </i>
    <i name="e_0_energy">     -9.81843398 </i>
   </energy>
  </scstep>
  <scstep>
   <time name="diag">    1.89    1.89</time>
   <time name="diis">    5.23    5.23</time>
   <time name="orth">    0.05    0.05</time>
   <time name="total">   59.37   59.39</time>
   <energy>
    <i name="e_fr_energy">     -9.81846250 </i>
    <i name="e_wo_entrp">     -9.81846250 </i>
    <i name="e_0_energy">     -9.81846250 </i>
   </energy>
  </scstep>
  <scstep>
   <time name="diag">    1.85    1.85</time>
   <time name="diis">    5.24    5.24</time>
   <time name="orth">    0.05    0.05</time>
   <time name="total">   58.97   58.99</time>
   <energy>
    <i name="e_fr_energy">     -9.81849647 </i>
    <i name="e_wo_entrp">     -9.81849647 </i>
    <i name="e_0_energy">     -9.81849647 </i>
   </energy>
  </scstep>
  <scstep>
   <time name="diag">    1.81    1.81</time>
   <time name="diis">    4.88    4.89</time>
   <time name="orth">    0.05    0.05</time>
   <time name="total">   58.73   58.76</time>
   <energy>
    <i name="e_fr_energy">     -9.81852694 </i>
    <i name="e_wo_entrp">     -9.81852694 </i>
    <i name="e_0_energy">     -9.81852694 </i>
   </energy>
  </scstep>
  <scstep>
   <time name="diag">    1.87    1.87</time>
   <time name="diis">    4.54    4.54</time>
   <time name="orth">    0.05    0.05</time>
   <time name="total">   58.85   58.92</time>
   <energy>
    <i name="e_fr_energy">     -9.81853940 </i>
    <i name="e_wo_entrp">     -9.81853940 </i>
    <i name="e_0_energy">     -9.81853940 </i>
   </energy>
  </scstep>
  <scstep>
   <time name="diag">    1.80    1.81</time>
   <time name="diis">    4.91    4.91</time>
   <time name="orth">    0.05    0.05</time>
   <time name="total">   58.90   58.93</time>
   <energy>
    <i name="e_fr_energy">     -9.81856664 </i>
    <i name="e_wo_entrp">     -9.81856664 </i>
    <i name="e_0_energy">     -9.81856664 </i>
   </energy>
  </scstep>
  <scstep>
   <time name="diag">    1.78    1.78</time>
   <time name="diis">    4.13    4.13</time>
   <time name="orth">    0.05    0.05</time>
   <time name="total">   58.34   58.37</time>
   <energy>
    <i name="e_fr_energy">     -9.81857263 </i>
    <i name="e_wo_entrp">     -9.81857263 </i>
    <i name="e_0_energy">     -9.81857263 </i>
   </energy>
  </scstep>
  <scstep>
   <time name="diag">    1.80    1.80</time>
   <time name="diis">    4.00    4.00</time>
   <time name="orth">    0.05    0.05</time>
   <time name="total">   57.95   57.97</time>
   <energy>
    <i name="e_fr_energy">     -9.81857720 </i>
    <i name="e_wo_entrp">     -9.81857720 </i>
    <i name="e_0_energy">     -9.81857720 </i>
   </energy>
  </scstep>
  <scstep>
   <time name="diag">    1.84    1.84</time>
   <time name="diis">    3.88    3.88</time>
   <time name="orth">    0.05    0.05</time>
   <time name="total">   57.81   57.83</time>
   <energy>
    <i name="e_fr_energy">     -9.81857909 </i>
    <i name="e_wo_entrp">     -9.81857909 </i>
    <i name="e_0_energy">     -9.81857909 </i>
   </energy>
  </scstep>
  <scstep>
   <time name="diag">    1.94    1.94</time>
   <time name="diis">    3.86    3.86</time>
   <time name="orth">    0.05    0.05</time>
   <time name="total">   53.79   53.81</time>
   <energy>
    <i name="alphaZ">      0.02383034 </i>
    <i name="ewald">    313.62925068 </i>
    <i name="hartreedc">  -1047.20363214 </i>
    <i name="XCdc">     55.42094075 </i>
    <i name="pawpsdc">    567.18953131 </i>
    <i name="pawaedc">   -570.97208042 </i>
    <i name="eentropy">      0.00000000 </i>
    <i name="bandstr">   -193.73068841 </i>
    <i name="atom">    865.82426828 </i>
    <i name="e_fr_energy">     -9.81857962 </i>
    <i name="e_wo_entrp">     -9.81857962 </i>
    <i name="e_0_energy">     -9.81857962 </i>
   </energy>
  </scstep>
  <structure>
   <crystal>
    <varray name="basis" >
     <v>      28.00000000       0.00000000       0.00000000 </v>
     <v>       0.00000000      28.00000000       0.00000000 </v>
     <v>       0.00000000       0.00000000      29.50000000 </v>
    </varray>
    <i name="volume">  23128.00000000 </i>
    <varray name="rec_basis" >
     <v>       0.03571429       0.00000000       0.00000000 </v>
     <v>       0.00000000       0.03571429       0.00000000 </v>
     <v>       0.00000000       0.00000000       0.03389831 </v>
    </varray>
   </crystal>
   <varray name="positions" >
    <v>       0.50000000       0.50000000       0.48145792 </v>
    <v>       0.50000000       0.50000000       0.52362682 </v>
   </varray>
  </structure>
  <varray name="forces" >
   <v>       0.00000000       0.00000000       0.59197445 </v>
   <v>       0.00000000       0.00000000      -0.59197445 </v>
  </varray>
  <varray name="stress" >
   <v>      -0.11093719       0.00000000       0.00000000 </v>
   <v>       0.00000000      -0.11093719       0.00000000 </v>
   <v>       0.00000000       0.00000000      -0.13146987 </v>
  </varray>
  <energy>
   <i name="e_fr_energy">     -9.81857962 </i>
   <i name="e_wo_entrp">     -9.81857962 </i>
   <i name="e_0_energy">      0.00000000 </i>
  </energy>
  <time name="totalsc"> 1009.68 1010.27</time>
 </calculation>
 <calculation>
  <scstep>
   <time name="dav">    9.75    9.76</time>
   <time name="total">   61.48   61.50</time>
   <energy>
    <i name="alphaZ">      0.02383034 </i>
    <i name="ewald">    316.20044814 </i>
    <i name="hartreedc">  -1049.10365720 </i>
    <i name="XCdc">     55.45377592 </i>
    <i name="pawpsdc">    567.18969845 </i>
    <i name="pawaedc">   -570.97225075 </i>
    <i name="eentropy">      0.00057979 </i>
    <i name="bandstr">   -194.43707118 </i>
    <i name="atom">    865.82426828 </i>
    <i name="e_fr_energy">     -9.82037822 </i>
    <i name="e_wo_entrp">     -9.82095801 </i>
    <i name="e_0_energy">     -9.82037822 </i>
   </energy>
  </scstep>
  <scstep>
   <time name="diag">    1.78    1.78</time>
   <time name="diis">    5.69    5.69</time>
   <time name="orth">    0.05    0.05</time>
   <time name="total">   59.33   59.35</time>
   <energy>
    <i name="e_fr_energy">     -9.82047211 </i>
    <i name="e_wo_entrp">     -9.82105190 </i>
    <i name="e_0_energy">     -9.82047211 </i>
   </energy>
  </scstep>
  <scstep>
   <time name="diag">    1.83    1.83</time>
   <time name="diis">    5.75    5.75</time>
   <time name="orth">    0.05    0.05</time>
   <time name="total">   59.76   59.78</time>
   <energy>
    <i name="e_fr_energy">     -9.82045508 </i>
    <i name="e_wo_entrp">     -9.82103487 </i>
    <i name="e_0_energy">     -9.82045508 </i>
   </energy>
  </scstep>
  <scstep>
   <time name="diag">    1.95    1.95</time>
   <time name="diis">    6.09    6.09</time>
   <time name="orth">    0.05    0.05</time>
   <time name="total">   60.13   60.16</time>
   <energy>
    <i name="e_fr_energy">     -9.82106283 </i>
    <i name="e_wo_entrp">     -9.82106283 </i>
    <i name="e_0_energy">     -9.82106283 </i>
   </energy>
  </scstep>
  <scstep>
   <time name="diag">    1.79    1.79</time>
   <time name="diis">    5.33    5.33</time>
   <time name="orth">    0.05    0.05</time>
   <time name="total">   58.82   58.86</time>
   <energy>
    <i name="e_fr_energy">     -9.82048961 </i>
    <i name="e_wo_entrp">     -9.82106940 </i>
    <i name="e_0_energy">     -9.82048961 </i>
   </energy>
  </scstep>
  <scstep>
   <time name="diag">    1.79    1.79</time>
   <time name="diis">    4.71    4.71</time>
   <time name="orth">    0.05    0.05</time>
   <time name="total">   58.34   58.35</time>
   <energy>
    <i name="e_fr_energy">     -9.82050142 </i>
    <i name="e_wo_entrp">     -9.82108121 </i>
    <i name="e_0_energy">     -9.82050142 </i>
   </energy>
  </scstep>
  <scstep>
   <time name="diag">    1.95    1.95</time>
   <time name="diis">    4.42    4.42</time>
   <time name="orth">    0.05    0.05</time>
   <time name="total">   58.54   58.56</time>
   <energy>
    <i name="e_fr_energy">     -9.82050646 </i>
    <i name="e_wo_entrp">     -9.82108625 </i>
    <i name="e_0_energy">     -9.82050646 </i>
   </energy>
  </scstep>
  <scstep>
   <time name="diag">    1.80    1.81</time>
   <time name="diis">    4.09    4.09</time>
   <time name="orth">    0.05    0.05</time>
   <time name="total">   57.91   57.95</time>
   <energy>
    <i name="e_fr_energy">     -9.82050815 </i>
    <i name="e_wo_entrp">     -9.82108794 </i>
    <i name="e_0_energy">     -9.82050815 </i>
   </energy>
  </scstep>
  <scstep>
   <time name="diag">    1.80    1.80</time>
   <time name="diis">    3.99    3.99</time>
   <time name="orth">    0.05    0.05</time>
   <time name="total">   53.71   53.72</time>
   <energy>
    <i name="alphaZ">      0.02383034 </i>
    <i name="ewald">    316.20044814 </i>
    <i name="hartreedc">  -1049.45386748 </i>
    <i name="XCdc">     55.47617664 </i>
    <i name="pawpsdc">    569.56148313 </i>
    <i name="pawaedc">   -573.35484176 </i>
    <i name="eentropy">      0.00057979 </i>
    <i name="bandstr">   -194.09858583 </i>
    <i name="atom">    865.82426828 </i>
    <i name="e_fr_energy">     -9.82050875 </i>
    <i name="e_wo_entrp">     -9.82108854 </i>
    <i name="e_0_energy">     -9.82050875 </i>
   </energy>
  </scstep>
  <structure>
   <crystal>
    <varray name="basis" >
     <v>      28.00000000       0.00000000       0.00000000 </v>
     <v>       0.00000000      28.00000000       0.00000000 </v>
     <v>       0.00000000       0.00000000      29.50000000 </v>
    </varray>
    <i name="volume">  23128.00000000 </i>
    <varray name="rec_basis" >
     <v>       0.03571429       0.00000000       0.00000000 </v>
     <v>       0.00000000       0.03571429       0.00000000 </v>
     <v>       0.00000000       0.00000000       0.03389831 </v>
    </varray>
   </crystal>
   <varray name="positions" >
    <v>       0.50000000       0.50000000       0.48158726 </v>
    <v>       0.50000000       0.50000000       0.52349749 </v>
   </varray>
  </structure>
  <varray name="forces" >
   <v>       0.00000000       0.00000000       0.06392836 </v>
   <v>       0.00000000       0.00000000      -0.06392836 </v>
  </varray>
  <varray name="stress" >
   <v>      -0.11093173       0.00000000       0.00000000 </v>
   <v>       0.00000000      -0.11093173       0.00000000 </v>
   <v>       0.00000000       0.00000000      -0.08693395 </v>
  </varray>
  <energy>
   <i name="e_fr_energy">     -9.82050875 </i>
   <i name="e_wo_entrp">     -9.82070202 </i>
   <i name="e_0_energy">      0.00057979 </i>
  </energy>
  <time name="totalsc">  594.93  595.17</time>
 </calculation>
 <calculation>
  <scstep>
   <time name="dav">   10.41   10.41</time>
   <time name="total">   62.49   62.51</time>
   <energy>
    <i name="alphaZ">      0.02383034 </i>
    <i name="ewald">    316.51388860 </i>
    <i name="hartreedc">  -1049.68355408 </i>
    <i name="XCdc">     55.48011294 </i>
    <i name="pawpsdc">    569.55902394 </i>
    <i name="pawaedc">   -573.35234631 </i>
    <i name="eentropy">      0.00000000 </i>
    <i name="bandstr">   -194.18634006 </i>
    <i name="atom">    865.82426828 </i>
    <i name="e_fr_energy">     -9.82111636 </i>
    <i name="e_wo_entrp">     -9.82111636 </i>
    <i name="e_0_energy">     -9.82111636 </i>
   </energy>
  </scstep>
  <scstep>
   <time name="diag">    1.85    1.85</time>
   <time name="diis">    6.10    6.10</time>
   <time name="orth">    0.05    0.05</time>
   <time name="total">   59.63   59.66</time>
   <energy>
    <i name="e_fr_energy">     -9.82110841 </i>
    <i name="e_wo_entrp">     -9.82110841 </i>
    <i name="e_0_energy">     -9.82110841 </i>
   </energy>
  </scstep>
  <scstep>
   <time name="diag">    1.79    1.79</time>
   <time name="diis">    4.47    4.47</time>
   <time name="orth">    0.05    0.05</time>
   <time name="total">   58.00   58.02</time>
   <energy>
    <i name="e_fr_energy">     -9.82111130 </i>
    <i name="e_wo_entrp">     -9.82111130 </i>
    <i name="e_0_energy">     -9.82111130 </i>
   </energy>
  </scstep>
  <scstep>
   <time name="diag">    1.79    1.80</time>
   <time name="diis">    4.56    4.56</time>
   <time name="orth">    0.05    0.05</time>
   <time name="total">   57.83   57.84</time>
   <energy>
    <i name="e_fr_energy">     -9.82111756 </i>
    <i name="e_wo_entrp">     -9.82111756 </i>
    <i name="e_0_energy">     -9.82111756 </i>
   </energy>
  </scstep>
  <scstep>
   <time name="diag">    1.77    1.77</time>
   <time name="diis">    4.10    4.10</time>
   <time name="orth">    0.05    0.05</time>
   <time name="total">   57.86   57.87</time>
   <energy>
    <i name="e_fr_energy">     -9.82111890 </i>
    <i name="e_wo_entrp">     -9.82111890 </i>
    <i name="e_0_energy">     -9.82111890 </i>
   </energy>
  </scstep>
  <scstep>
   <time name="diag">    1.94    1.94</time>
   <time name="diis">    4.22    4.22</time>
   <time name="orth">    0.05    0.05</time>
   <time name="total">   54.35   54.36</time>
   <energy>
    <i name="alphaZ">      0.02383034 </i>
    <i name="ewald">    316.51388860 </i>
    <i name="hartreedc">  -1049.72598829 </i>
    <i name="XCdc">     55.48281640 </i>
    <i name="pawpsdc">    569.84170443 </i>
    <i name="pawaedc">   -573.63632457 </i>
    <i name="eentropy">      0.00000000 </i>
    <i name="bandstr">   -194.14531394 </i>
    <i name="atom">    865.82426828 </i>
    <i name="e_fr_energy">     -9.82111877 </i>
    <i name="e_wo_entrp">     -9.82111877 </i>
    <i name="e_0_energy">     -9.82111877 </i>
   </energy>
  </scstep>
  <structure>
   <crystal>
    <varray name="basis" >
     <v>      28.00000000       0.00000000       0.00000000 </v>
     <v>       0.00000000      28.00000000       0.00000000 </v>
     <v>       0.00000000       0.00000000      29.50000000 </v>
    </varray>
    <i name="volume">  23128.00000000 </i>
    <varray name="rec_basis" >
     <v>       0.03571429       0.00000000       0.00000000 </v>
     <v>       0.00000000       0.03571429       0.00000000 </v>
     <v>       0.00000000       0.00000000       0.03389831 </v>
    </varray>
   </crystal>
   <varray name="positions" >
    <v>       0.50000000       0.50000000       0.48160291 </v>
    <v>       0.50000000       0.50000000       0.52348183 </v>
   </varray>
  </structure>
  <varray name="forces" >
   <v>       0.00000000       0.00000000       0.00013164 </v>
   <v>       0.00000000       0.00000000      -0.00013164 </v>
  </varray>
  <varray name="stress" >
   <v>      -0.11092841       0.00000000       0.00000000 </v>
   <v>       0.00000000      -0.11092841       0.00000000 </v>
   <v>       0.00000000       0.00000000      -0.08175537 </v>
  </varray>
  <energy>
   <i name="e_fr_energy">     -9.82111877 </i>
   <i name="e_wo_entrp">     -9.82111877 </i>
   <i name="e_0_energy">      0.00000000 </i>
  </energy>
  <time name="totalsc">  416.34  416.52</time>
  <eigenvalues>
   <array>
    <dimension dim="1">band</dimension>
    <dimension dim="2">kpoint</dimension>
    <dimension dim="3">spin</dimension>
    <field>eigene</field>
    <field>occ</field>
    <set>
     <set comment="spin 1">
      <set comment="kpoint 1">
       <r>  -32.6230    1.0000 </r>
       <r>  -20.7818    1.0000 </r>
       <r>  -13.6202    1.0000 </r>
       <r>  -13.4005    1.0000 </r>
       <r>  -13.4005    1.0000 </r>
       <r>   -7.1073    1.0000 </r>
       <r>   -7.1073    1.0000 </r>
       <r>   -0.1619    0.0000 </r>
       <r>    0.0487    0.0000 </r>
       <r>    0.1937    0.0000 </r>
       <r>    0.2200    0.0000 </r>
      </set>
     </set>
     <set comment="spin 2">
      <set comment="kpoint 1">
       <r>  -31.3435    1.0000 </r>
       <r>  -18.9962    1.0000 </r>
       <r>  -12.5784    1.0000 </r>
       <r>  -11.5933    1.0000 </r>
       <r>  -11.5933    1.0000 </r>
       <r>   -4.9055    0.0000 </r>
       <r>   -4.9055    0.0000 </r>
       <r>   -0.0507    0.0000 </r>
       <r>    0.0531    0.0000 </r>
       <r>    0.1652    0.0000 </r>
       <r>    0.1867    0.0000 </r>
      </set>
     </set>
    </set>
   </array>
  </eigenvalues>
  <separator name="orbital magnetization" >
   <v name="MAGDIPOLOUT">      0.00000000      0.00000000      0.00000000</v>
  </separator>
 </calculation>
 <structure name="finalpos" >
  <crystal>
   <varray name="basis" >
    <v>      28.00000000       0.00000000       0.00000000 </v>
    <v>       0.00000000      28.00000000       0.00000000 </v>
    <v>       0.00000000       0.00000000      29.50000000 </v>
   </varray>
   <i name="volume">  23128.00000000 </i>
   <varray name="rec_basis" >
    <v>       0.03571429       0.00000000       0.00000000 </v>
    <v>       0.00000000       0.03571429       0.00000000 </v>
    <v>       0.00000000       0.00000000       0.03389831 </v>
   </varray>
  </crystal>
  <varray name="positions" >
   <v>       0.50000000       0.50000000       0.48160291 </v>
   <v>       0.50000000       0.50000000       0.52348183 </v>
  </varray>
 </structure>
</modeling>
