unknown system                          
            1
    28.000000    0.000000    0.000000
     0.000000   28.000000    0.000000
     0.000000    0.000000   29.500000
   O 
   2
Direct configuration=     1
   0.50000000  0.50000000  0.47457627
   0.50000000  0.50000000  0.53050847
Direct configuration=     2
   0.50000000  0.50000000  0.47987739
   0.50000000  0.50000000  0.52520736
Direct configuration=     3
   0.50000000  0.50000000  0.48885527
   0.50000000  0.50000000  0.51622947
Direct configuration=     4
   0.50000000  0.50000000  0.48013267
   0.50000000  0.50000000  0.52495207
Direct configuration=     5
   0.50000000  0.50000000  0.48035542
   0.50000000  0.50000000  0.52472932
Direct configuration=     6
   0.50000000  0.50000000  0.48211246
   0.50000000  0.50000000  0.52297229
Direct configuration=     7
   0.50000000  0.50000000  0.48145792
   0.50000000  0.50000000  0.52362682
Direct configuration=     8
   0.50000000  0.50000000  0.48158726
   0.50000000  0.50000000  0.52349749
Direct configuration=     9
   0.50000000  0.50000000  0.48160291
   0.50000000  0.50000000  0.52348183
