    2    2 1000    2
  0.1156400E+05  0.2800000E-08  0.2800000E-08  0.2950000E-08  0.2000000E-15
   1.0000000000000000E-004
  CAR 
 unknown system                          
   12    1   11

  0.1262379E-14  0.1262379E-14  0.1262379E-14  0.1000000E+01
   1      -32.624262    -31.344837
   2      -20.782266    -18.996600
   3      -13.619893    -12.577514
   4      -13.401374    -11.594289
   5      -13.401374    -11.594289
   6       -7.107619     -4.906054
   7       -7.107619     -4.906054
   8       -0.157485     -0.041836
   9        0.073923      0.054581
  10        0.221291      0.170063
  11        0.251726      0.190491
