 vasp.5.3.2 13Sep12 (build Mar 13 2013 15:03:29) complex                         
 executed on             LinuxPgi date 2016.05.03  13:58:35
 running on    8 total cores
 distrk:  each k-point on    8 cores,    1 groups
 distr:  one band on NCORES_PER_BAND=   8 cores,    1 groups


--------------------------------------------------------------------------------------------------------


 INCAR:
 POTCAR:   PAW_GGA O 05Jan2001                    

 ----------------------------------------------------------------------------- 
|                                                                             |
|           W    W    AA    RRRRR   N    N  II  N    N   GGGG   !!!           |
|           W    W   A  A   R    R  NN   N  II  NN   N  G    G  !!!           |
|           W    W  A    A  R    R  N N  N  II  N N  N  G       !!!           |
|           W WW W  AAAAAA  RRRRR   N  N N  II  N  N N  G  GGG   !            |
|           WW  WW  A    A  R   R   N   NN  II  N   NN  G    G                |
|           W    W  A    A  R    R  N    N  II  N    N   GGGG   !!!           |
|                                                                             |
|      For optimal performance we recommend that you set                      |
|        NPAR = 4 - approx SQRT( number of cores)                             |
|      (number of cores/NPAR must be integer)                                 |
|      This setting will greatly improve the performance of VASP for DFT.     |
|      The default NPAR=number of cores might be grossly inefficient          |
|      on modern multi-core architectures or massively parallel machines.     |
|      Do your own testing.                                                   |
|      Unfortunately you need to use the default for hybrid, GW and RPA       |
|      calculations.                                                          |
|                                                                             |
 ----------------------------------------------------------------------------- 

 POTCAR:   PAW_GGA O 05Jan2001                    
  local pseudopotential read in
  atomic valenz-charges read in
  non local Contribution for L=            0  read in
    real space projection operators read in
  non local Contribution for L=            0  read in
    real space projection operators read in
  non local Contribution for L=            1  read in
    real space projection operators read in
  non local Contribution for L=            1  read in
    real space projection operators read in
    PAW grid and wavefunctions read in

   number of l-projection  operators is LMAX  =            4
   number of lm-projection operators is LMMAX =            8


 ----------------------------------------------------------------------------- 
|                                                                             |
|  ADVICE TO THIS USER RUNNING 'VASP/VAMP'   (HEAR YOUR MASTER'S VOICE ...):  |
|                                                                             |
|      You have a (more or less) 'small supercell' and for smaller cells      |
|      it is recommended  to use the reciprocal-space projection scheme!      |
|      The real space optimization is not  efficient for small cells and it   |
|      is also less accurate ...                                              |
|      Therefore set LREAL=.FALSE. in the  INCAR file                         |
|                                                                             |
 ----------------------------------------------------------------------------- 

 Optimization of the real space projectors (new method)

 maximal supplied QI-value         = 24.76
 optimisation between [QCUT,QGAM] = [ 10.15, 20.30] = [ 28.85,115.39] Ry 
 Optimized for a Real-space Cutoff    1.30 Angstroem

   l    n(q)    QCUT    max X(q) W(low)/X(q) W(high)/X(q)  e(spline) 
   0      8    10.150     4.138    0.54E-04    0.57E-04    0.73E-07
   0      8    10.150     8.500    0.47E-03    0.69E-03    0.22E-06
   1      7    10.150     2.482    0.11E-03    0.90E-04    0.31E-07
   1      7    10.150     3.878    0.45E-03    0.49E-03    0.15E-06
 PAW_GGA O 05Jan2001                    :
 energy of atom  1       EATOM= -433.0277
 kinetic energy error for atom=    0.1156 (will be added to EATOM!!)


 POSCAR:  O                                      
  positions in cartesian coordinates
  No initial velocities read in
 exchange correlation table for  LEXCH =        7
   RHO(1)=    0.500       N(1)  =     2000
   RHO(2)=  100.500       N(2)  =     4000

 VTST: version 3.0, (09/19/12)

 CHAIN: initializing optimizer
 
 OPT: Using VASP QUASI-newton optimizer
 CHAIN: Read ICHAIN             0

 POSCAR:  O                                      
  positions in cartesian coordinates
  No initial velocities read in



--------------------------------------------------------------------------------------------------------


 ion  position               nearest neighbor table
   1  0.500  0.500  0.475-   2 1.50
   2  0.500  0.500  0.525-   1 1.50

  LATTYP: Found a simple tetragonal cell.
 ALAT       =    28.0000000000
 C/A-ratio  =     1.0535714286
  
  Lattice vectors:
  
 A1 = (  28.0000000000,   0.0000000000,   0.0000000000)
 A2 = (   0.0000000000,  28.0000000000,   0.0000000000)
 A3 = (   0.0000000000,   0.0000000000,  29.5000000000)


Analysis of symmetry for initial positions (statically):
=====================================================================
 Subroutine PRICEL returns:
 Original cell was already a primitive cell.
 

 Routine SETGRP: Setting up the symmetry group for a 
 simple tetragonal supercell.


 Subroutine GETGRP returns: Found 16 space group operations
 (whereof 16 operations were pure point group operations)
 out of a pool of 16 trial point group operations.


The static configuration has the point symmetry D_4h.


Analysis of symmetry for dynamics (positions and initial velocities):
=====================================================================
 Subroutine PRICEL returns:
 Original cell was already a primitive cell.
 

 Routine SETGRP: Setting up the symmetry group for a 
 simple tetragonal supercell.


 Subroutine GETGRP returns: Found 16 space group operations
 (whereof 16 operations were pure point group operations)
 out of a pool of 16 trial point group operations.


The dynamic configuration has the point symmetry D_4h.


Analysis of magnetic symmetry:
=====================================================================

 Subroutine MAGSYM returns: Found 16 space group operations
 (whereof 16 operations were pure point group operations)
 out of a pool of 16 trial space group operations
 (whereof 16 operations were pure point group operations)
 and found also     1 'primitive' translations


The magnetic configuration has the point symmetry D_4h.


 KPOINTS: KPOINTS created by Atomic Simulation Env

Automatic generation of k-mesh.
Space group operators:
 irot       det(A)        alpha          n_x          n_y          n_z        tau_x        tau_y        tau_z
    1     1.000000     0.000000     1.000000     0.000000     0.000000     0.000000     0.000000     0.000000
    2    -1.000000     0.000000     1.000000     0.000000     0.000000     0.000000     0.000000     0.000000
    3     1.000000    90.000000     0.000000     0.000000    -1.000000     0.000000     0.000000     0.000000
    4    -1.000000    90.000000     0.000000     0.000000    -1.000000     0.000000     0.000000     0.000000
    5     1.000000   179.999999     0.000000     0.000000     1.000000     0.000000     0.000000     0.000000
    6    -1.000000   179.999999     0.000000     0.000000     1.000000     0.000000     0.000000     0.000000
    7     1.000000    90.000000     0.000000     0.000000     1.000000     0.000000     0.000000     0.000000
    8    -1.000000    90.000000     0.000000     0.000000     1.000000     0.000000     0.000000     0.000000
    9     1.000000   180.000000     0.000000     1.000000     0.000000     0.000000     0.000000     0.000000
   10    -1.000000   180.000000     0.000000     1.000000     0.000000     0.000000     0.000000     0.000000
   11     1.000000   180.000000     0.707107     0.707107     0.000000     0.000000     0.000000     0.000000
   12    -1.000000   180.000000     0.707107     0.707107     0.000000     0.000000     0.000000     0.000000
   13     1.000000   180.000000     1.000000     0.000000     0.000000     0.000000     0.000000     0.000000
   14    -1.000000   180.000000     1.000000     0.000000     0.000000     0.000000     0.000000     0.000000
   15     1.000000   180.000000     0.707107    -0.707107     0.000000     0.000000     0.000000     0.000000
   16    -1.000000   180.000000     0.707107    -0.707107     0.000000     0.000000     0.000000     0.000000
 
 Subroutine IBZKPT returns following result:
 ===========================================
 
 Found      1 irreducible k-points:
 
 Following reciprocal coordinates:
            Coordinates               Weight
  0.000000  0.000000  0.000000      1.000000
 
 Following cartesian coordinates:
            Coordinates               Weight
  0.000000  0.000000  0.000000      1.000000
 


--------------------------------------------------------------------------------------------------------




 Dimension of arrays:
   k-points           NKPTS =      1   k-points in BZ     NKDIM =      1   number of bands    NBANDS=     11
   number of dos      NEDOS =    301   number of ions     NIONS =      2
   non local maximal  LDIM  =      4   non local SUM 2l+1 LMDIM =      8
   total plane-waves  NPLWV = ******
   max r-space proj   IRMAX =   1176   max aug-charges    IRDMAX=   1783
   dimension x,y,z NGX =   140 NGY =  140 NGZ =  144
   dimension x,y,z NGXF=   280 NGYF=  280 NGZF=  288
   support grid    NGXF=   280 NGYF=  280 NGZF=  288
   ions per type =               2
 NGX,Y,Z   is equivalent  to a cutoff of   8.31,  8.31,  8.12 a.u.
 NGXF,Y,Z  is equivalent  to a cutoff of  16.62, 16.62, 16.23 a.u.


 I would recommend the setting:
   dimension x,y,z NGX =   137 NGY =  137 NGZ =  144
 SYSTEM =  unknown system                          
 POSCAR =   O                                      

 Startparameter for this run:
   NWRITE =      1    write-flag & timer
   PREC   = normal    normal or accurate (medium, high low for compatibility)
   ISTART =      0    job   : 0-new  1-cont  2-samecut
   ICHARG =      2    charge: 1-file 2-atom 10-const
   ISPIN  =      2    spin polarized calculation?
   LNONCOLLINEAR =      F non collinear calculations
   LSORBIT =      F    spin-orbit coupling
   INIWAV =      1    electr: 0-lowe 1-rand  2-diag
   LASPH  =      F    aspherical Exc in radial PAW
   METAGGA=      F    non-selfconsistent MetaGGA calc.

 Electronic Relaxation 1
   ENCUT  =  400.0 eV  29.40 Ry    5.42 a.u.  45.66 45.66 48.11*2*pi/ulx,y,z
   ENINI  =  400.0     initial cutoff
   ENAUG  =  605.4 eV  augmentation charge cutoff
   NELM   =    400;   NELMIN=  2; NELMDL=-10     # of ELM steps 
   EDIFF  = 0.1E-05   stopping-criterion for ELM
   LREAL  =      T    real-space projection
   NLSPLINE    = F    spline interpolate recip. space projectors
   LCOMPAT=      F    compatible to vasp.4.4
   GGA_COMPAT  = T    GGA compatible to vasp.4.4-vasp.4.6
   LMAXPAW     = -100 max onsite density
   LMAXMIX     =    2 max onsite mixed and CHGCAR
   VOSKOWN=      1    Vosko Wilk Nusair interpolation
   ROPT   =   -0.00050
 Ionic relaxation
   EDIFFG = -.4E-01   stopping-criterion for IOM
   NSW    =   1000    number of steps for IOM
   NBLOCK =      1;   KBLOCK =   1000    inner block; outer block 
   IBRION =      1    ionic relax: 0-MD 1-quasi-New 2-CG
   NFREE  =      2    steps in history (QN), initial steepest desc. (CG)
   ISIF   =      2    stress and relaxation
   IWAVPR =     11    prediction:  0-non 1-charg 2-wave 3-comb
   ISYM   =      2    0-nonsym 1-usesym 2-fastsym
   LCORR  =      T    Harris-Foulkes like correction to forces

   POTIM  = 0.2000    time-step for ionic-motion
   TEIN   =    0.0    initial temperature
   TEBEG  =    0.0;   TEEND  =   0.0 temperature during run
   SMASS  =  -3.00    Nose mass-parameter (am)
   estimated Nose-frequenzy (Omega)   =  0.10E-29 period in steps =****** mass=  -0.179E-25a.u.
   SCALEE = 1.0000    scale energy and forces
   NPACO  =    256;   APACO  = 16.0  distance and # of slots for P.C.
   PSTRESS=    0.0 pullay stress

  Mass of Ions in am
   POMASS =  16.00
  Ionic Valenz
   ZVAL   =   6.00
  Atomic Wigner-Seitz radii
   RWIGS  =  -1.00
  virtual crystal weights 
   VCA    =   1.00
   NELECT =      12.0000    total number of electrons
   NUPDOWN=      -1.0000    fix difference up-down

 DOS related values:
   EMIN   =  10.00;   EMAX   =-10.00  energy-range for DOS
   EFERMI =   0.00
   ISMEAR =     1;   SIGMA  =   0.01  broadening in eV -4-tet -1-fermi 0-gaus

 Electronic relaxation 2 (details)
   IALGO  =     68    algorithm
   LDIAG  =      T    sub-space diagonalisation (order eigenvalues)
   LSUBROT=      T    optimize rotation matrix (better conditioning)
   TURBO    =      0    0=normal 1=particle mesh
   IRESTART =      0    0=no restart 2=restart with 2 vectors
   NREBOOT  =      0    no. of reboots
   NMIN     =      0    reboot dimension
   EREF     =   0.00    reference energy to select bands
   IMIX   =      4    mixing-type and parameters
     AMIX     =   0.40;   BMIX     =  1.00
     AMIX_MAG =   1.60;   BMIX_MAG =  1.00
     AMIN     =   0.10
     WC   =   100.;   INIMIX=   1;  MIXPRE=   1;  MAXMIX= -45

 Intra band minimization:
   WEIMIN = 0.0010     energy-eigenvalue tresh-hold
   EBREAK =  0.23E-07  absolut break condition
   DEPER  =   0.30     relativ break condition  

   TIME   =   0.40     timestep for ELM

  volume/ion in A,a.u.               =   11564.00     78037.72
  Fermi-wavevector in a.u.,A,eV,Ry     =   0.131550  0.248593  0.235453  0.017305
  Thomas-Fermi vector in A             =   0.773390

 Write flags
   LWAVE  =      F    write WAVECAR
   LCHARG =      F    write CHGCAR
   LVTOT  =      F    write LOCPOT, total local potential
   LVHAR  =      F    write LOCPOT, Hartree potential only
   LELF   =      F    write electronic localiz. function (ELF)
   LORBIT =      0    0 simple, 1 ext, 2 COOP (PROOUT)


 Dipole corrections
   LMONO  =      F    monopole corrections only (constant potential shift)
   LDIPOL =      F    correct potential (dipole corrections)
   IDIPOL =      0    1-x, 2-y, 3-z, 4-all directions 
   EPSILON=  1.0000000 bulk dielectric constant

 Exchange correlation treatment:
   GGA     =    --    GGA type
   LEXCH   =     7    internal setting for exchange type
   VOSKOWN=      1    Vosko Wilk Nusair interpolation
   LHFCALC =     F    Hartree Fock is set to
   LHFONE  =     F    Hartree Fock one center treatment
   AEXX    =    0.0000 exact exchange contribution

 Linear response parameters
   LEPSILON=     F    determine dielectric tensor
   LRPA    =     F    only Hartree local field effects (RPA)
   LNABLA  =     F    use nabla operator in PAW spheres
   LVEL    =     F    velocity operator in full k-point grid
   LINTERFAST=   F  fast interpolation
   KINTER  =     0    interpolate to denser k-point grid
   CSHIFT  =0.1000    complex shift for real part using Kramers Kronig
   OMEGAMAX=  -1.0    maximum frequency
   DEG_THRESHOLD= 0.2000000E-02 threshold for treating states as degnerate
   RTIME   =    0.100 relaxation time in fs

 Orbital magnetization related:
   ORBITALMAG=     F  switch on orbital magnetization
   LCHIMAG   =     F  perturbation theory with respect to B field
   DQ        =  0.001000  dq finite difference perturbation B field



--------------------------------------------------------------------------------------------------------


 quasi-Newton-method for relaxation of ions
 charge density and potential will be updated during run
 spin polarized calculation
 RMM-DIIS sequential band-by-band and
  variant of blocked Davidson during initial phase
 perform sub-space diagonalisation
    before iterative eigenvector-optimisation
 modified Broyden-mixing scheme, WC =      100.0
 initial mixing is a Kerker type mixing with AMIX =  0.4000 and BMIX =      1.0000
 Hartree-type preconditioning will be used
 using additional bands             5
 real space projection scheme for non local part
 calculate Harris-corrections to forces 
   (improved forces if not selfconsistent)
 use gradient corrections 
 use of overlap-Matrix (Vanderbilt PP)
 Methfessel and Paxton  Order N= 1 SIGMA  =   0.01


--------------------------------------------------------------------------------------------------------


  energy-cutoff  :      400.00
  volume of cell :    23128.00
      direct lattice vectors                 reciprocal lattice vectors
    28.000000000  0.000000000  0.000000000     0.035714286  0.000000000  0.000000000
     0.000000000 28.000000000  0.000000000     0.000000000  0.035714286  0.000000000
     0.000000000  0.000000000 29.500000000     0.000000000  0.000000000  0.033898305

  length of vectors
    28.000000000 28.000000000 29.500000000     0.035714286  0.035714286  0.033898305



 k-points in units of 2pi/SCALE and weight: KPOINTS created by Atomic Simulation Env
   0.00000000  0.00000000  0.00000000       1.000

 k-points in reciprocal lattice and weights: KPOINTS created by Atomic Simulation Env
   0.00000000  0.00000000  0.00000000       1.000

 position of ions in fractional coordinates (direct lattice) 
   0.50000000  0.50000000  0.47457627
   0.50000000  0.50000000  0.52542373

 position of ions in cartesian coordinates  (Angst):
  14.00000000 14.00000000 14.00000000
  14.00000000 14.00000000 15.50000000



--------------------------------------------------------------------------------------------------------


 k-point  1 :   0.0000 0.0000 0.0000  plane waves:  420237

 maximum and minimum number of plane-waves per node :     52536    52519

 maximum number of plane-waves:    420237
 maximum index in each direction: 
   IXMAX=   45   IYMAX=   45   IZMAX=   48
   IXMIN=  -45   IYMIN=  -45   IZMIN=  -48

 WARNING: aliasing errors must be expected set NGX to 182 to avoid them
 WARNING: aliasing errors must be expected set NGY to 182 to avoid them
 WARNING: aliasing errors must be expected set NGZ to 194 to avoid them
 aliasing errors are usually negligible using standard VASP settings
 and one can safely disregard these warnings

 real space projection operators:
  total allocation   :        138.50 KBytes
  max/ min on nodes  :         20.00         15.75


 parallel 3D FFT for wavefunctions:
    minimum data exchange during FFTs selected (reduces bandwidth)
 parallel 3D FFT for charge:
    minimum data exchange during FFTs selected (reduces bandwidth)


 total amount of memory used by VASP on root node   388402. kBytes
========================================================================

   base      :      30000. kBytes
   nonlr-proj:         57. kBytes
   fftplans  :     106425. kBytes
   grid      :     233421. kBytes
   one-center:          6. kBytes
   wavefun   :      18493. kBytes

 Broyden mixing: mesh for mixing (old mesh)
   NGX = 91   NGY = 91   NGZ = 97
  (NGX  =280   NGY  =280   NGZ  =288)
  gives a total of 803257 points

 initial charge density was supplied:
 charge density of overlapping atoms calculated
 number of electron      12.0000000 magnetization       2.0000000
 keeping initial charge density in first step


--------------------------------------------------------------------------------------------------------


 Maximum index for non-local projection operator           130
 Maximum index for augmentation-charges           216 (set IRDMAX)


--------------------------------------------------------------------------------------------------------


 First call to EWALD:  gamma=   0.062
 Maximum number of real-space cells 3x 3x 3
 Maximum number of reciprocal cells 3x 3x 3

 FEWALD executed in parallel
    FEWALD:  cpu time    0.00: real time    0.00


----------------------------------------- Iteration    1(   1)  ---------------------------------------


    POTLOK:  cpu time   47.45: real time   47.47
    SETDIJ:  cpu time    0.06: real time    0.06
     EDDAV:  cpu time   11.97: real time   11.97
       DOS:  cpu time    0.00: real time    0.00
    --------------------------------------------
      LOOP:  cpu time   59.48: real time   59.51

 eigenvalue-minimisations  :    76
 total energy-change (2. order) : 0.1130069E+03  (-0.1371489E+03)
 number of electron      12.0000000 magnetization       2.0000000
 augmentation part       12.0000000 magnetization       2.0000000

 Free energy of the ion-electron system (eV)
  ---------------------------------------------------
  alpha Z        PSCENC =         0.02383034
  Ewald energy   TEWEN  =       242.53224863
  -1/2 Hartree   DENC   =      -981.50796248
  -exchange  EXHF       =         0.00000000
  -V(xc)+E(xc)   XCENC  =        53.74474115
  PAW double counting   =       492.37991565     -496.26382662
  entropy T*S    EENTRO =         0.00061187
  eigenvalues    EBANDS =       -63.72690232
  atomic energy  EATOM  =       865.82426828
  ---------------------------------------------------
  free energy    TOTEN  =       113.00692450 eV

  energy without entropy =      113.00631263  energy(sigma->0) =      113.00672054


--------------------------------------------------------------------------------------------------------




----------------------------------------- Iteration    1(   2)  ---------------------------------------


     EDDAV:  cpu time   14.00: real time   14.01
       DOS:  cpu time    0.00: real time    0.00
    --------------------------------------------
      LOOP:  cpu time   14.00: real time   14.01

 eigenvalue-minimisations  :    82
 total energy-change (2. order) :-0.7190763E+02  (-0.7181786E+02)
 number of electron      12.0000000 magnetization       2.0000000
 augmentation part       12.0000000 magnetization       2.0000000

 Free energy of the ion-electron system (eV)
  ---------------------------------------------------
  alpha Z        PSCENC =         0.02383034
  Ewald energy   TEWEN  =       242.53224863
  -1/2 Hartree   DENC   =      -981.50796248
  -exchange  EXHF       =         0.00000000
  -V(xc)+E(xc)   XCENC  =        53.74474115
  PAW double counting   =       492.37991565     -496.26382662
  entropy T*S    EENTRO =         0.00028990
  eigenvalues    EBANDS =      -135.63420853
  atomic energy  EATOM  =       865.82426828
  ---------------------------------------------------
  free energy    TOTEN  =        41.09929631 eV

  energy without entropy =       41.09900641  energy(sigma->0) =       41.09919968


--------------------------------------------------------------------------------------------------------




----------------------------------------- Iteration    1(   3)  ---------------------------------------


     EDDAV:  cpu time    9.66: real time    9.66
       DOS:  cpu time    0.00: real time    0.00
    --------------------------------------------
      LOOP:  cpu time    9.66: real time    9.67

 eigenvalue-minimisations  :    56
 total energy-change (2. order) :-0.3129232E+02  (-0.2975242E+02)
 number of electron      12.0000000 magnetization       2.0000000
 augmentation part       12.0000000 magnetization       2.0000000

 Free energy of the ion-electron system (eV)
  ---------------------------------------------------
  alpha Z        PSCENC =         0.02383034
  Ewald energy   TEWEN  =       242.53224863
  -1/2 Hartree   DENC   =      -981.50796248
  -exchange  EXHF       =         0.00000000
  -V(xc)+E(xc)   XCENC  =        53.74474115
  PAW double counting   =       492.37991565     -496.26382662
  entropy T*S    EENTRO =         0.00000000
  eigenvalues    EBANDS =      -166.92623809
  atomic energy  EATOM  =       865.82426828
  ---------------------------------------------------
  free energy    TOTEN  =         9.80697685 eV

  energy without entropy =        9.80697685  energy(sigma->0) =        9.80697685


--------------------------------------------------------------------------------------------------------




----------------------------------------- Iteration    1(   4)  ---------------------------------------


     EDDAV:  cpu time   12.70: real time   12.70
       DOS:  cpu time    0.00: real time    0.00
    --------------------------------------------
      LOOP:  cpu time   12.70: real time   12.71

 eigenvalue-minimisations  :    72
 total energy-change (2. order) :-0.1422845E+02  (-0.9054761E+01)
 number of electron      12.0000000 magnetization       2.0000000
 augmentation part       12.0000000 magnetization       2.0000000

 Free energy of the ion-electron system (eV)
  ---------------------------------------------------
  alpha Z        PSCENC =         0.02383034
  Ewald energy   TEWEN  =       242.53224863
  -1/2 Hartree   DENC   =      -981.50796248
  -exchange  EXHF       =         0.00000000
  -V(xc)+E(xc)   XCENC  =        53.74474115
  PAW double counting   =       492.37991565     -496.26382662
  entropy T*S    EENTRO =         0.00028990
  eigenvalues    EBANDS =      -181.15497866
  atomic energy  EATOM  =       865.82426828
  ---------------------------------------------------
  free energy    TOTEN  =        -4.42147382 eV

  energy without entropy =       -4.42176372  energy(sigma->0) =       -4.42157045


--------------------------------------------------------------------------------------------------------




----------------------------------------- Iteration    1(   5)  ---------------------------------------


     EDDAV:  cpu time   10.09: real time   10.09
       DOS:  cpu time    0.00: real time    0.00
    --------------------------------------------
      LOOP:  cpu time   10.09: real time   10.09

 eigenvalue-minimisations  :    58
 total energy-change (2. order) :-0.3872156E+01  (-0.3871726E+01)
 number of electron      12.0000000 magnetization       2.0000000
 augmentation part       12.0000000 magnetization       2.0000000

 Free energy of the ion-electron system (eV)
  ---------------------------------------------------
  alpha Z        PSCENC =         0.02383034
  Ewald energy   TEWEN  =       242.53224863
  -1/2 Hartree   DENC   =      -981.50796248
  -exchange  EXHF       =         0.00000000
  -V(xc)+E(xc)   XCENC  =        53.74474115
  PAW double counting   =       492.37991565     -496.26382662
  entropy T*S    EENTRO =         0.00029010
  eigenvalues    EBANDS =      -185.02713514
  atomic energy  EATOM  =       865.82426828
  ---------------------------------------------------
  free energy    TOTEN  =        -8.29363009 eV

  energy without entropy =       -8.29392019  energy(sigma->0) =       -8.29372679


--------------------------------------------------------------------------------------------------------




----------------------------------------- Iteration    1(   6)  ---------------------------------------


     EDDAV:  cpu time   13.13: real time   13.13
       DOS:  cpu time    0.00: real time    0.00
    --------------------------------------------
      LOOP:  cpu time   13.13: real time   13.14

 eigenvalue-minimisations  :    77
 total energy-change (2. order) :-0.3356434E-01  (-0.3327407E-01)
 number of electron      12.0000000 magnetization       2.0000000
 augmentation part       12.0000000 magnetization       2.0000000

 Free energy of the ion-electron system (eV)
  ---------------------------------------------------
  alpha Z        PSCENC =         0.02383034
  Ewald energy   TEWEN  =       242.53224863
  -1/2 Hartree   DENC   =      -981.50796248
  -exchange  EXHF       =         0.00000000
  -V(xc)+E(xc)   XCENC  =        53.74474115
  PAW double counting   =       492.37991565     -496.26382662
  entropy T*S    EENTRO =         0.00000000
  eigenvalues    EBANDS =      -185.06040938
  atomic energy  EATOM  =       865.82426828
  ---------------------------------------------------
  free energy    TOTEN  =        -8.32719443 eV

  energy without entropy =       -8.32719443  energy(sigma->0) =       -8.32719443


--------------------------------------------------------------------------------------------------------




----------------------------------------- Iteration    1(   7)  ---------------------------------------


     EDDAV:  cpu time   14.05: real time   14.05
       DOS:  cpu time    0.00: real time    0.00
    --------------------------------------------
      LOOP:  cpu time   14.05: real time   14.06

 eigenvalue-minimisations  :    80
 total energy-change (2. order) :-0.2019871E-03  (-0.2019861E-03)
 number of electron      12.0000000 magnetization       2.0000000
 augmentation part       12.0000000 magnetization       2.0000000

 Free energy of the ion-electron system (eV)
  ---------------------------------------------------
  alpha Z        PSCENC =         0.02383034
  Ewald energy   TEWEN  =       242.53224863
  -1/2 Hartree   DENC   =      -981.50796248
  -exchange  EXHF       =         0.00000000
  -V(xc)+E(xc)   XCENC  =        53.74474115
  PAW double counting   =       492.37991565     -496.26382662
  entropy T*S    EENTRO =         0.00000000
  eigenvalues    EBANDS =      -185.06061136
  atomic energy  EATOM  =       865.82426828
  ---------------------------------------------------
  free energy    TOTEN  =        -8.32739642 eV

  energy without entropy =       -8.32739642  energy(sigma->0) =       -8.32739642


--------------------------------------------------------------------------------------------------------




----------------------------------------- Iteration    1(   8)  ---------------------------------------


     EDDAV:  cpu time   15.19: real time   15.20
       DOS:  cpu time    0.00: real time    0.00
    --------------------------------------------
      LOOP:  cpu time   15.20: real time   15.20

 eigenvalue-minimisations  :    88
 total energy-change (2. order) :-0.2609037E-05  (-0.2608993E-05)
 number of electron      12.0000000 magnetization       2.0000000
 augmentation part       12.0000000 magnetization       2.0000000

 Free energy of the ion-electron system (eV)
  ---------------------------------------------------
  alpha Z        PSCENC =         0.02383034
  Ewald energy   TEWEN  =       242.53224863
  -1/2 Hartree   DENC   =      -981.50796248
  -exchange  EXHF       =         0.00000000
  -V(xc)+E(xc)   XCENC  =        53.74474115
  PAW double counting   =       492.37991565     -496.26382662
  entropy T*S    EENTRO =         0.00000000
  eigenvalues    EBANDS =      -185.06061397
  atomic energy  EATOM  =       865.82426828
  ---------------------------------------------------
  free energy    TOTEN  =        -8.32739903 eV

  energy without entropy =       -8.32739903  energy(sigma->0) =       -8.32739903


--------------------------------------------------------------------------------------------------------




----------------------------------------- Iteration    1(   9)  ---------------------------------------


     EDDAV:  cpu time   13.97: real time   13.97
       DOS:  cpu time    0.00: real time    0.00
    --------------------------------------------
      LOOP:  cpu time   13.97: real time   13.97

 eigenvalue-minimisations  :    80
 total energy-change (2. order) :-0.3221658E-08  (-0.3374485E-08)
 number of electron      12.0000000 magnetization       2.0000000
 augmentation part       12.0000000 magnetization       2.0000000

 Free energy of the ion-electron system (eV)
  ---------------------------------------------------
  alpha Z        PSCENC =         0.02383034
  Ewald energy   TEWEN  =       242.53224863
  -1/2 Hartree   DENC   =      -981.50796248
  -exchange  EXHF       =         0.00000000
  -V(xc)+E(xc)   XCENC  =        53.74474115
  PAW double counting   =       492.37991565     -496.26382662
  entropy T*S    EENTRO =         0.00000000
  eigenvalues    EBANDS =      -185.06061398
  atomic energy  EATOM  =       865.82426828
  ---------------------------------------------------
  free energy    TOTEN  =        -8.32739903 eV

  energy without entropy =       -8.32739903  energy(sigma->0) =       -8.32739903


--------------------------------------------------------------------------------------------------------




----------------------------------------- Iteration    1(  10)  ---------------------------------------


     EDDAV:  cpu time   14.84: real time   14.85
       DOS:  cpu time    0.00: real time    0.00
    CHARGE:  cpu time    3.27: real time    3.27
    MIXING:  cpu time    0.32: real time    0.32
    --------------------------------------------
      LOOP:  cpu time   18.44: real time   18.44

 eigenvalue-minimisations  :    88
 total energy-change (2. order) :-0.3283276E-09  (-0.2951239E-10)
 number of electron      12.0000127 magnetization       2.0000006
 augmentation part        1.0449900 magnetization       0.4775458

 Broyden mixing:
  rms(total) = 0.57652E+00    rms(broyden)= 0.56599E+00
  rms(prec ) = 0.56958E+00
  weight for this iteration     100.00

 Free energy of the ion-electron system (eV)
  ---------------------------------------------------
  alpha Z        PSCENC =         0.02383034
  Ewald energy   TEWEN  =       242.53224863
  -1/2 Hartree   DENC   =      -981.50796248
  -exchange  EXHF       =         0.00000000
  -V(xc)+E(xc)   XCENC  =        53.74474115
  PAW double counting   =       492.37991565     -496.26382662
  entropy T*S    EENTRO =         0.00000000
  eigenvalues    EBANDS =      -185.06061398
  atomic energy  EATOM  =       865.82426828
  ---------------------------------------------------
  free energy    TOTEN  =        -8.32739903 eV

  energy without entropy =       -8.32739903  energy(sigma->0) =       -8.32739903


--------------------------------------------------------------------------------------------------------




----------------------------------------- Iteration    1(  11)  ---------------------------------------


    POTLOK:  cpu time   48.99: real time   48.99
    SETDIJ:  cpu time    0.07: real time    0.07
    EDDIAG:  cpu time    1.89: real time    1.89
  RMM-DIIS:  cpu time    5.96: real time    5.96
    ORTHCH:  cpu time    0.05: real time    0.05
       DOS:  cpu time    0.00: real time    0.00
    CHARGE:  cpu time    3.24: real time    3.24
    MIXING:  cpu time    0.35: real time    0.35
    --------------------------------------------
      LOOP:  cpu time   60.55: real time   60.56

 eigenvalue-minimisations  :    44
 total energy-change (2. order) : 0.9670545E-01  (-0.6792974E-01)
 number of electron      12.0000127 magnetization       2.0000010
 augmentation part        1.0455159 magnetization       0.4926827

 Broyden mixing:
  rms(total) = 0.27160E+00    rms(broyden)= 0.27027E+00
  rms(prec ) = 0.27219E+00
  weight for this iteration     100.00

 eigenvalues of (default mixing * dielectric matrix)
  average eigenvalue GAMMA=   0.7497
  0.7497

 Free energy of the ion-electron system (eV)
  ---------------------------------------------------
  alpha Z        PSCENC =         0.02383034
  Ewald energy   TEWEN  =       242.53224863
  -1/2 Hartree   DENC   =      -980.82976859
  -exchange  EXHF       =         0.00000000
  -V(xc)+E(xc)   XCENC  =        54.09129885
  PAW double counting   =       502.09948408     -505.79312378
  entropy T*S    EENTRO =         0.00057979
  eigenvalues    EBANDS =      -186.17951117
  atomic energy  EATOM  =       865.82426828
  ---------------------------------------------------
  free energy    TOTEN  =        -8.23069358 eV

  energy without entropy =       -8.23127337  energy(sigma->0) =       -8.23088685


--------------------------------------------------------------------------------------------------------




----------------------------------------- Iteration    1(  12)  ---------------------------------------


    POTLOK:  cpu time   48.90: real time   48.91
    SETDIJ:  cpu time    0.06: real time    0.06
    EDDIAG:  cpu time    1.92: real time    1.92
  RMM-DIIS:  cpu time    6.11: real time    6.11
    ORTHCH:  cpu time    0.05: real time    0.05
       DOS:  cpu time    0.00: real time    0.00
    CHARGE:  cpu time    3.32: real time    3.32
    MIXING:  cpu time    0.37: real time    0.37
    --------------------------------------------
      LOOP:  cpu time   60.74: real time   60.75

 eigenvalue-minimisations  :    44
 total energy-change (2. order) :-0.1681335E+00  (-0.6292694E-02)
 number of electron      12.0000127 magnetization       2.0000020
 augmentation part        1.0431849 magnetization       0.4913585

 Broyden mixing:
  rms(total) = 0.13909E+00    rms(broyden)= 0.13902E+00
  rms(prec ) = 0.14038E+00
  weight for this iteration     100.00

 eigenvalues of (default mixing * dielectric matrix)
  average eigenvalue GAMMA=   1.2796
  0.7010  1.8582

 Free energy of the ion-electron system (eV)
  ---------------------------------------------------
  alpha Z        PSCENC =         0.02383034
  Ewald energy   TEWEN  =       242.53224863
  -1/2 Hartree   DENC   =      -981.02845548
  -exchange  EXHF       =         0.00000000
  -V(xc)+E(xc)   XCENC  =        53.93428229
  PAW double counting   =       507.75645389     -511.46513081
  entropy T*S    EENTRO =         0.00057979
  eigenvalues    EBANDS =      -185.97690397
  atomic energy  EATOM  =       865.82426828
  ---------------------------------------------------
  free energy    TOTEN  =        -8.39882704 eV

  energy without entropy =       -8.39940683  energy(sigma->0) =       -8.39902030


--------------------------------------------------------------------------------------------------------




----------------------------------------- Iteration    1(  13)  ---------------------------------------


    POTLOK:  cpu time   49.35: real time   49.36
    SETDIJ:  cpu time    0.06: real time    0.06
    EDDIAG:  cpu time    1.89: real time    1.89
  RMM-DIIS:  cpu time    5.93: real time    5.93
    ORTHCH:  cpu time    0.05: real time    0.05
       DOS:  cpu time    0.00: real time    0.00
    CHARGE:  cpu time    3.12: real time    3.12
    MIXING:  cpu time    0.39: real time    0.39
    --------------------------------------------
      LOOP:  cpu time   60.79: real time   60.81

 eigenvalue-minimisations  :    44
 total energy-change (2. order) :-0.2640696E-02  (-0.2664705E-02)
 number of electron      12.0000127 magnetization       2.0000025
 augmentation part        1.0413260 magnetization       0.4919744

 Broyden mixing:
  rms(total) = 0.27280E-01    rms(broyden)= 0.27235E-01
  rms(prec ) = 0.27626E-01
  weight for this iteration     100.00

 eigenvalues of (default mixing * dielectric matrix)
  average eigenvalue GAMMA=   1.2501
  2.2389  0.8355  0.6759

 Free energy of the ion-electron system (eV)
  ---------------------------------------------------
  alpha Z        PSCENC =         0.02383034
  Ewald energy   TEWEN  =       242.53224863
  -1/2 Hartree   DENC   =      -981.60321739
  -exchange  EXHF       =         0.00000000
  -V(xc)+E(xc)   XCENC  =        53.99748805
  PAW double counting   =       516.57645690     -520.18774536
  entropy T*S    EENTRO =         0.00057979
  eigenvalues    EBANDS =      -185.56537697
  atomic energy  EATOM  =       865.82426828
  ---------------------------------------------------
  free energy    TOTEN  =        -8.40146773 eV

  energy without entropy =       -8.40204752  energy(sigma->0) =       -8.40166100


--------------------------------------------------------------------------------------------------------




----------------------------------------- Iteration    1(  14)  ---------------------------------------


    POTLOK:  cpu time   48.74: real time   48.75
    SETDIJ:  cpu time    0.06: real time    0.06
    EDDIAG:  cpu time    1.67: real time    1.67
  RMM-DIIS:  cpu time    5.18: real time    5.18
    ORTHCH:  cpu time    0.05: real time    0.05
       DOS:  cpu time    0.00: real time    0.00
    CHARGE:  cpu time    2.93: real time    2.93
    MIXING:  cpu time    0.39: real time    0.39
    --------------------------------------------
      LOOP:  cpu time   59.02: real time   59.05

 eigenvalue-minimisations  :    44
 total energy-change (2. order) :-0.4510536E-02  (-0.2699753E-03)
 number of electron      12.0000127 magnetization       2.0000032
 augmentation part        1.0409540 magnetization       0.4916122

 Broyden mixing:
  rms(total) = 0.10931E-01    rms(broyden)= 0.10928E-01
  rms(prec ) = 0.11258E-01
  weight for this iteration     100.00

 eigenvalues of (default mixing * dielectric matrix)
  average eigenvalue GAMMA=   1.2864
  2.3618  0.6687  0.7546  1.3606

 Free energy of the ion-electron system (eV)
  ---------------------------------------------------
  alpha Z        PSCENC =         0.02383034
  Ewald energy   TEWEN  =       242.53224863
  -1/2 Hartree   DENC   =      -981.87990597
  -exchange  EXHF       =         0.00000000
  -V(xc)+E(xc)   XCENC  =        54.00668179
  PAW double counting   =       517.87848927     -521.48741368
  entropy T*S    EENTRO =         0.00057979
  eigenvalues    EBANDS =      -185.30475670
  atomic energy  EATOM  =       865.82426828
  ---------------------------------------------------
  free energy    TOTEN  =        -8.40597827 eV

  energy without entropy =       -8.40655806  energy(sigma->0) =       -8.40617153


--------------------------------------------------------------------------------------------------------




----------------------------------------- Iteration    1(  15)  ---------------------------------------


    POTLOK:  cpu time   48.13: real time   48.14
    SETDIJ:  cpu time    0.06: real time    0.06
    EDDIAG:  cpu time    1.71: real time    1.71
  RMM-DIIS:  cpu time    5.57: real time    5.57
    ORTHCH:  cpu time    0.05: real time    0.05
       DOS:  cpu time    0.00: real time    0.00
    CHARGE:  cpu time    2.91: real time    2.91
    MIXING:  cpu time    0.41: real time    0.42
    --------------------------------------------
      LOOP:  cpu time   58.85: real time   58.87

 eigenvalue-minimisations  :    44
 total energy-change (2. order) :-0.9063655E-03  (-0.8786497E-04)
 number of electron      12.0000127 magnetization       2.0000036
 augmentation part        1.0411220 magnetization       0.4915587

 Broyden mixing:
  rms(total) = 0.29193E-02    rms(broyden)= 0.29178E-02
  rms(prec ) = 0.30769E-02
  weight for this iteration     100.00

 eigenvalues of (default mixing * dielectric matrix)
  average eigenvalue GAMMA=   1.2613
  2.4384  1.6299  0.8853  0.6878  0.6651

 Free energy of the ion-electron system (eV)
  ---------------------------------------------------
  alpha Z        PSCENC =         0.02383034
  Ewald energy   TEWEN  =       242.53224863
  -1/2 Hartree   DENC   =      -982.09502019
  -exchange  EXHF       =         0.00000000
  -V(xc)+E(xc)   XCENC  =        54.00933099
  PAW double counting   =       518.32516498     -521.91813850
  entropy T*S    EENTRO =         0.00000000
  eigenvalues    EBANDS =      -185.10856915
  atomic energy  EATOM  =       865.82426828
  ---------------------------------------------------
  free energy    TOTEN  =        -8.40688463 eV

  energy without entropy =       -8.40688463  energy(sigma->0) =       -8.40688463


--------------------------------------------------------------------------------------------------------




----------------------------------------- Iteration    1(  16)  ---------------------------------------


    POTLOK:  cpu time   47.79: real time   47.80
    SETDIJ:  cpu time    0.06: real time    0.06
    EDDIAG:  cpu time    1.77: real time    1.77
  RMM-DIIS:  cpu time    5.99: real time    5.99
    ORTHCH:  cpu time    0.05: real time    0.05
       DOS:  cpu time    0.00: real time    0.00
    CHARGE:  cpu time    3.33: real time    3.33
    MIXING:  cpu time    0.51: real time    0.51
    --------------------------------------------
      LOOP:  cpu time   59.51: real time   59.53

 eigenvalue-minimisations  :    44
 total energy-change (2. order) :-0.2415349E-03  (-0.1421774E-04)
 number of electron      12.0000127 magnetization       2.0000040
 augmentation part        1.0410873 magnetization       0.4914243

 Broyden mixing:
  rms(total) = 0.13725E-02    rms(broyden)= 0.13695E-02
  rms(prec ) = 0.15463E-02
  weight for this iteration     100.00

 eigenvalues of (default mixing * dielectric matrix)
  average eigenvalue GAMMA=   1.2151
  2.4623  1.6779  1.0445  0.6438  0.6766  0.7854

 Free energy of the ion-electron system (eV)
  ---------------------------------------------------
  alpha Z        PSCENC =         0.02383034
  Ewald energy   TEWEN  =       242.53224863
  -1/2 Hartree   DENC   =      -982.14213613
  -exchange  EXHF       =         0.00000000
  -V(xc)+E(xc)   XCENC  =        54.00992414
  PAW double counting   =       518.31668676     -521.91028829
  entropy T*S    EENTRO =         0.00000000
  eigenvalues    EBANDS =      -185.06165989
  atomic energy  EATOM  =       865.82426828
  ---------------------------------------------------
  free energy    TOTEN  =        -8.40712617 eV

  energy without entropy =       -8.40712617  energy(sigma->0) =       -8.40712617


--------------------------------------------------------------------------------------------------------




----------------------------------------- Iteration    1(  17)  ---------------------------------------


    POTLOK:  cpu time   48.01: real time   48.01
    SETDIJ:  cpu time    0.06: real time    0.06
    EDDIAG:  cpu time    1.69: real time    1.69
  RMM-DIIS:  cpu time    5.18: real time    5.18
    ORTHCH:  cpu time    0.05: real time    0.05
       DOS:  cpu time    0.00: real time    0.00
    CHARGE:  cpu time    2.93: real time    2.93
    MIXING:  cpu time    0.49: real time    0.50
    --------------------------------------------
      LOOP:  cpu time   58.40: real time   58.43

 eigenvalue-minimisations  :    44
 total energy-change (2. order) :-0.2034492E-03  (-0.2503790E-05)
 number of electron      12.0000127 magnetization       2.0000046
 augmentation part        1.0411098 magnetization       0.4914401

 Broyden mixing:
  rms(total) = 0.76121E-03    rms(broyden)= 0.76111E-03
  rms(prec ) = 0.94502E-03
  weight for this iteration     100.00

 eigenvalues of (default mixing * dielectric matrix)
  average eigenvalue GAMMA=   1.3175
  2.4577  1.8970  1.8970  0.9207  0.6387  0.6787  0.7326

 Free energy of the ion-electron system (eV)
  ---------------------------------------------------
  alpha Z        PSCENC =         0.02383034
  Ewald energy   TEWEN  =       242.53224863
  -1/2 Hartree   DENC   =      -982.16761478
  -exchange  EXHF       =         0.00000000
  -V(xc)+E(xc)   XCENC  =        54.00968309
  PAW double counting   =       518.25786713     -521.85007219
  entropy T*S    EENTRO =         0.00000000
  eigenvalues    EBANDS =      -185.03754011
  atomic energy  EATOM  =       865.82426828
  ---------------------------------------------------
  free energy    TOTEN  =        -8.40732962 eV

  energy without entropy =       -8.40732962  energy(sigma->0) =       -8.40732962


--------------------------------------------------------------------------------------------------------




----------------------------------------- Iteration    1(  18)  ---------------------------------------


    POTLOK:  cpu time   47.92: real time   47.94
    SETDIJ:  cpu time    0.06: real time    0.06
    EDDIAG:  cpu time    1.77: real time    1.77
  RMM-DIIS:  cpu time    5.31: real time    5.31
    ORTHCH:  cpu time    0.05: real time    0.05
       DOS:  cpu time    0.00: real time    0.00
    CHARGE:  cpu time    3.12: real time    3.12
    MIXING:  cpu time    0.54: real time    0.54
    --------------------------------------------
      LOOP:  cpu time   58.77: real time   58.80

 eigenvalue-minimisations  :    42
 total energy-change (2. order) :-0.3174380E-03  (-0.3054172E-05)
 number of electron      12.0000127 magnetization       2.0000051
 augmentation part        1.0411362 magnetization       0.4914432

 Broyden mixing:
  rms(total) = 0.34657E-03    rms(broyden)= 0.34645E-03
  rms(prec ) = 0.51188E-03
  weight for this iteration     100.00

 eigenvalues of (default mixing * dielectric matrix)
  average eigenvalue GAMMA=   1.3099
  2.4437  2.4437  1.7535  0.9877  0.8265  0.6353  0.6686  0.7197

 Free energy of the ion-electron system (eV)
  ---------------------------------------------------
  alpha Z        PSCENC =         0.02383034
  Ewald energy   TEWEN  =       242.53224863
  -1/2 Hartree   DENC   =      -982.20974338
  -exchange  EXHF       =         0.00000000
  -V(xc)+E(xc)   XCENC  =        54.00977897
  PAW double counting   =       518.19214648     -521.78391720
  entropy T*S    EENTRO =         0.00000000
  eigenvalues    EBANDS =      -184.99625917
  atomic energy  EATOM  =       865.82426828
  ---------------------------------------------------
  free energy    TOTEN  =        -8.40764706 eV

  energy without entropy =       -8.40764706  energy(sigma->0) =       -8.40764706


--------------------------------------------------------------------------------------------------------




----------------------------------------- Iteration    1(  19)  ---------------------------------------


    POTLOK:  cpu time   48.01: real time   48.02
    SETDIJ:  cpu time    0.06: real time    0.06
    EDDIAG:  cpu time    1.78: real time    1.78
  RMM-DIIS:  cpu time    5.17: real time    5.17
    ORTHCH:  cpu time    0.05: real time    0.05
       DOS:  cpu time    0.00: real time    0.00
    CHARGE:  cpu time    3.13: real time    3.13
    MIXING:  cpu time    0.58: real time    0.58
    --------------------------------------------
      LOOP:  cpu time   58.77: real time   58.79

 eigenvalue-minimisations  :    41
 total energy-change (2. order) :-0.2000677E-03  (-0.1828176E-05)
 number of electron      12.0000127 magnetization       2.0000058
 augmentation part        1.0411336 magnetization       0.4914449

 Broyden mixing:
  rms(total) = 0.23319E-03    rms(broyden)= 0.23295E-03
  rms(prec ) = 0.36065E-03
  weight for this iteration     100.00

 eigenvalues of (default mixing * dielectric matrix)
  average eigenvalue GAMMA=   1.4015
  3.0516  2.4897  1.6911  1.6911  0.9375  0.6277  0.6583  0.7580  0.7082

 Free energy of the ion-electron system (eV)
  ---------------------------------------------------
  alpha Z        PSCENC =         0.02383034
  Ewald energy   TEWEN  =       242.53224863
  -1/2 Hartree   DENC   =      -982.24553003
  -exchange  EXHF       =         0.00000000
  -V(xc)+E(xc)   XCENC  =        54.01040648
  PAW double counting   =       518.18368079     -521.77534011
  entropy T*S    EENTRO =         0.00000000
  eigenvalues    EBANDS =      -184.96141149
  atomic energy  EATOM  =       865.82426828
  ---------------------------------------------------
  free energy    TOTEN  =        -8.40784712 eV

  energy without entropy =       -8.40784712  energy(sigma->0) =       -8.40784712


--------------------------------------------------------------------------------------------------------




----------------------------------------- Iteration    1(  20)  ---------------------------------------


    POTLOK:  cpu time   47.90: real time   47.91
    SETDIJ:  cpu time    0.06: real time    0.06
    EDDIAG:  cpu time    1.78: real time    1.78
  RMM-DIIS:  cpu time    5.18: real time    5.18
    ORTHCH:  cpu time    0.05: real time    0.05
       DOS:  cpu time    0.00: real time    0.00
    CHARGE:  cpu time    3.08: real time    3.08
    MIXING:  cpu time    0.65: real time    0.65
    --------------------------------------------
      LOOP:  cpu time   58.70: real time   58.72

 eigenvalue-minimisations  :    41
 total energy-change (2. order) :-0.1954681E-03  (-0.2225367E-05)
 number of electron      12.0000127 magnetization       2.0000062
 augmentation part        1.0411125 magnetization       0.4914344

 Broyden mixing:
  rms(total) = 0.15348E-03    rms(broyden)= 0.15279E-03
  rms(prec ) = 0.22309E-03
  weight for this iteration     100.00

 eigenvalues of (default mixing * dielectric matrix)
  average eigenvalue GAMMA=   1.4019
  3.5093  2.4903  1.7083  1.7083  0.9399  0.9399  0.7549  0.6248  0.6527  0.6902

 Free energy of the ion-electron system (eV)
  ---------------------------------------------------
  alpha Z        PSCENC =         0.02383034
  Ewald energy   TEWEN  =       242.53224863
  -1/2 Hartree   DENC   =      -982.28902697
  -exchange  EXHF       =         0.00000000
  -V(xc)+E(xc)   XCENC  =        54.01128088
  PAW double counting   =       518.18165021     -521.77346221
  entropy T*S    EENTRO =         0.00000000
  eigenvalues    EBANDS =      -184.91883175
  atomic energy  EATOM  =       865.82426828
  ---------------------------------------------------
  free energy    TOTEN  =        -8.40804259 eV

  energy without entropy =       -8.40804259  energy(sigma->0) =       -8.40804259


--------------------------------------------------------------------------------------------------------




----------------------------------------- Iteration    1(  21)  ---------------------------------------


    POTLOK:  cpu time   47.88: real time   47.89
    SETDIJ:  cpu time    0.06: real time    0.06
    EDDIAG:  cpu time    1.78: real time    1.78
  RMM-DIIS:  cpu time    5.08: real time    5.08
    ORTHCH:  cpu time    0.05: real time    0.05
       DOS:  cpu time    0.00: real time    0.00
    CHARGE:  cpu time    3.05: real time    3.05
    MIXING:  cpu time    0.69: real time    0.69
    --------------------------------------------
      LOOP:  cpu time   58.60: real time   58.61

 eigenvalue-minimisations  :    40
 total energy-change (2. order) :-0.7361733E-04  (-0.5873835E-06)
 number of electron      12.0000127 magnetization       2.0000068
 augmentation part        1.0411088 magnetization       0.4914366

 Broyden mixing:
  rms(total) = 0.10400E-03    rms(broyden)= 0.10381E-03
  rms(prec ) = 0.15772E-03
  weight for this iteration     100.00

 eigenvalues of (default mixing * dielectric matrix)
  average eigenvalue GAMMA=   1.5493
  4.3689  2.5404  1.9148  1.8907  1.8907  0.8907  0.8465  0.7489  0.6811  0.6256
  0.6439

 Free energy of the ion-electron system (eV)
  ---------------------------------------------------
  alpha Z        PSCENC =         0.02383034
  Ewald energy   TEWEN  =       242.53224863
  -1/2 Hartree   DENC   =      -982.29948215
  -exchange  EXHF       =         0.00000000
  -V(xc)+E(xc)   XCENC  =        54.01126250
  PAW double counting   =       518.17570753     -521.76754074
  entropy T*S    EENTRO =         0.00000000
  eigenvalues    EBANDS =      -184.90841059
  atomic energy  EATOM  =       865.82426828
  ---------------------------------------------------
  free energy    TOTEN  =        -8.40811621 eV

  energy without entropy =       -8.40811621  energy(sigma->0) =       -8.40811621


--------------------------------------------------------------------------------------------------------




----------------------------------------- Iteration    1(  22)  ---------------------------------------


    POTLOK:  cpu time   47.41: real time   47.42
    SETDIJ:  cpu time    0.06: real time    0.06
    EDDIAG:  cpu time    1.67: real time    1.67
  RMM-DIIS:  cpu time    4.77: real time    4.77
    ORTHCH:  cpu time    0.05: real time    0.05
       DOS:  cpu time    0.00: real time    0.00
    CHARGE:  cpu time    2.92: real time    2.93
    MIXING:  cpu time    0.74: real time    0.74
    --------------------------------------------
      LOOP:  cpu time   57.62: real time   57.65

 eigenvalue-minimisations  :    40
 total energy-change (2. order) :-0.8038859E-04  (-0.7306004E-06)
 number of electron      12.0000127 magnetization       2.0000070
 augmentation part        1.0411131 magnetization       0.4914405

 Broyden mixing:
  rms(total) = 0.68614E-04    rms(broyden)= 0.68495E-04
  rms(prec ) = 0.91834E-04
  weight for this iteration     100.00

 eigenvalues of (default mixing * dielectric matrix)
  average eigenvalue GAMMA=   1.6185
  5.5292  2.7359  2.4222  1.7083  1.7083  0.9480  0.9480  0.7796  0.6236  0.6374
  0.6962  0.6848

 Free energy of the ion-electron system (eV)
  ---------------------------------------------------
  alpha Z        PSCENC =         0.02383034
  Ewald energy   TEWEN  =       242.53224863
  -1/2 Hartree   DENC   =      -982.31420553
  -exchange  EXHF       =         0.00000000
  -V(xc)+E(xc)   XCENC  =        54.01126644
  PAW double counting   =       518.17169200     -521.76351128
  entropy T*S    EENTRO =         0.00000000
  eigenvalues    EBANDS =      -184.89378545
  atomic energy  EATOM  =       865.82426828
  ---------------------------------------------------
  free energy    TOTEN  =        -8.40819660 eV

  energy without entropy =       -8.40819660  energy(sigma->0) =       -8.40819660


--------------------------------------------------------------------------------------------------------




----------------------------------------- Iteration    1(  23)  ---------------------------------------


    POTLOK:  cpu time   47.82: real time   47.84
    SETDIJ:  cpu time    0.06: real time    0.06
    EDDIAG:  cpu time    1.87: real time    1.87
  RMM-DIIS:  cpu time    4.57: real time    4.57
    ORTHCH:  cpu time    0.05: real time    0.05
       DOS:  cpu time    0.00: real time    0.00
    CHARGE:  cpu time    2.96: real time    2.96
    MIXING:  cpu time    0.79: real time    0.79
    --------------------------------------------
      LOOP:  cpu time   58.12: real time   58.14

 eigenvalue-minimisations  :    34
 total energy-change (2. order) :-0.1795408E-04  (-0.1372991E-06)
 number of electron      12.0000127 magnetization       2.0000074
 augmentation part        1.0411057 magnetization       0.4914417

 Broyden mixing:
  rms(total) = 0.41276E-04    rms(broyden)= 0.40998E-04
  rms(prec ) = 0.62708E-04
  weight for this iteration     100.00

 eigenvalues of (default mixing * dielectric matrix)
  average eigenvalue GAMMA=   1.6155
  5.8230  2.7995  2.4371  1.7536  1.4958  1.4958  0.9118  0.9118  0.7590  0.6874
  0.6736  0.6346  0.6192

 Free energy of the ion-electron system (eV)
  ---------------------------------------------------
  alpha Z        PSCENC =         0.02383034
  Ewald energy   TEWEN  =       242.53224863
  -1/2 Hartree   DENC   =      -982.31917270
  -exchange  EXHF       =         0.00000000
  -V(xc)+E(xc)   XCENC  =        54.01137456
  PAW double counting   =       518.17573243     -521.76758122
  entropy T*S    EENTRO =         0.00000000
  eigenvalues    EBANDS =      -184.88891487
  atomic energy  EATOM  =       865.82426828
  ---------------------------------------------------
  free energy    TOTEN  =        -8.40821455 eV

  energy without entropy =       -8.40821455  energy(sigma->0) =       -8.40821455


--------------------------------------------------------------------------------------------------------




----------------------------------------- Iteration    1(  24)  ---------------------------------------


    POTLOK:  cpu time   48.11: real time   48.11
    SETDIJ:  cpu time    0.06: real time    0.06
    EDDIAG:  cpu time    1.93: real time    1.93
  RMM-DIIS:  cpu time    4.84: real time    4.85
    ORTHCH:  cpu time    0.05: real time    0.05
       DOS:  cpu time    0.00: real time    0.00
    CHARGE:  cpu time    3.30: real time    3.30
    MIXING:  cpu time    0.90: real time    0.90
    --------------------------------------------
      LOOP:  cpu time   59.20: real time   59.24

 eigenvalue-minimisations  :    34
 total energy-change (2. order) : 0.5457793E-03  (-0.1540721E-06)
 number of electron      12.0000127 magnetization       2.0000077
 augmentation part        1.0411014 magnetization       0.4914431

 Broyden mixing:
  rms(total) = 0.31569E-04    rms(broyden)= 0.31472E-04
  rms(prec ) = 0.40474E-04
  weight for this iteration     100.00

 eigenvalues of (default mixing * dielectric matrix)
  average eigenvalue GAMMA=   1.7844
  6.8181  3.7182  2.6080  2.4515  1.6771  1.6771  0.9615  0.9615  0.8008  0.7142
  0.7007  0.6081  0.6309  0.6544

 Free energy of the ion-electron system (eV)
  ---------------------------------------------------
  alpha Z        PSCENC =         0.02383034
  Ewald energy   TEWEN  =       242.53224863
  -1/2 Hartree   DENC   =      -982.32092068
  -exchange  EXHF       =         0.00000000
  -V(xc)+E(xc)   XCENC  =        54.01133244
  PAW double counting   =       518.17539745     -521.76721861
  entropy T*S    EENTRO =         0.00057979
  eigenvalues    EBANDS =      -184.88718640
  atomic energy  EATOM  =       865.82426828
  ---------------------------------------------------
  free energy    TOTEN  =        -8.40766877 eV

  energy without entropy =       -8.40824856  energy(sigma->0) =       -8.40786204


--------------------------------------------------------------------------------------------------------




----------------------------------------- Iteration    1(  25)  ---------------------------------------


    POTLOK:  cpu time   48.34: real time   48.35
    SETDIJ:  cpu time    0.07: real time    0.07
    EDDIAG:  cpu time    1.98: real time    1.98
  RMM-DIIS:  cpu time    4.76: real time    4.76
    ORTHCH:  cpu time    0.05: real time    0.05
       DOS:  cpu time    0.00: real time    0.00
    CHARGE:  cpu time    3.15: real time    3.15
    MIXING:  cpu time    0.88: real time    0.88
    --------------------------------------------
      LOOP:  cpu time   59.24: real time   59.25

 eigenvalue-minimisations  :    32
 total energy-change (2. order) :-0.7966309E-05  (-0.7700748E-07)
 number of electron      12.0000127 magnetization       2.0000078
 augmentation part        1.0411020 magnetization       0.4914445

 Broyden mixing:
  rms(total) = 0.14024E-04    rms(broyden)= 0.13205E-04
  rms(prec ) = 0.18946E-04
  weight for this iteration     100.00

 eigenvalues of (default mixing * dielectric matrix)
  average eigenvalue GAMMA=   1.7971
  7.3534  4.2326  2.6365  2.4461  1.6700  1.6700  0.9738  0.9738  0.8900  0.7954
  0.7378  0.6121  0.6250  0.6528  0.6874

 Free energy of the ion-electron system (eV)
  ---------------------------------------------------
  alpha Z        PSCENC =         0.02383034
  Ewald energy   TEWEN  =       242.53224863
  -1/2 Hartree   DENC   =      -982.32036892
  -exchange  EXHF       =         0.00000000
  -V(xc)+E(xc)   XCENC  =        54.01122797
  PAW double counting   =       518.17287707     -521.76467281
  entropy T*S    EENTRO =         0.00057979
  eigenvalues    EBANDS =      -184.88766708
  atomic energy  EATOM  =       865.82426828
  ---------------------------------------------------
  free energy    TOTEN  =        -8.40767674 eV

  energy without entropy =       -8.40825653  energy(sigma->0) =       -8.40787000


--------------------------------------------------------------------------------------------------------




----------------------------------------- Iteration    1(  26)  ---------------------------------------


    POTLOK:  cpu time   47.93: real time   47.94
    SETDIJ:  cpu time    0.06: real time    0.06
    EDDIAG:  cpu time    1.87: real time    1.87
  RMM-DIIS:  cpu time    4.27: real time    4.27
    ORTHCH:  cpu time    0.05: real time    0.05
       DOS:  cpu time    0.00: real time    0.00
    CHARGE:  cpu time    3.23: real time    3.23
    MIXING:  cpu time    1.05: real time    1.05
    --------------------------------------------
      LOOP:  cpu time   58.47: real time   58.51

 eigenvalue-minimisations  :    30
 total energy-change (2. order) :-0.2951551E-05  (-0.2346021E-07)
 number of electron      12.0000127 magnetization       2.0000079
 augmentation part        1.0411018 magnetization       0.4914450

 Broyden mixing:
  rms(total) = 0.10005E-04    rms(broyden)= 0.97851E-05
  rms(prec ) = 0.14314E-04
  weight for this iteration     100.00

 eigenvalues of (default mixing * dielectric matrix)
  average eigenvalue GAMMA=   1.7928
  7.6199  4.4888  2.5958  2.4766  1.6210  1.6210  1.5168  0.9722  0.9722  0.8171
  0.7474  0.7128  0.6661  0.6411  0.6133  0.6024

 Free energy of the ion-electron system (eV)
  ---------------------------------------------------
  alpha Z        PSCENC =         0.02383034
  Ewald energy   TEWEN  =       242.53224863
  -1/2 Hartree   DENC   =      -982.32016824
  -exchange  EXHF       =         0.00000000
  -V(xc)+E(xc)   XCENC  =        54.01119784
  PAW double counting   =       518.17263446     -521.76443107
  entropy T*S    EENTRO =         0.00057979
  eigenvalues    EBANDS =      -184.88783972
  atomic energy  EATOM  =       865.82426828
  ---------------------------------------------------
  free energy    TOTEN  =        -8.40767969 eV

  energy without entropy =       -8.40825948  energy(sigma->0) =       -8.40787295


--------------------------------------------------------------------------------------------------------




----------------------------------------- Iteration    1(  27)  ---------------------------------------


    POTLOK:  cpu time   48.05: real time   48.05
    SETDIJ:  cpu time    0.07: real time    0.07
    EDDIAG:  cpu time    1.89: real time    1.89
  RMM-DIIS:  cpu time    4.30: real time    4.30
    ORTHCH:  cpu time    0.05: real time    0.05
       DOS:  cpu time    0.00: real time    0.00
    CHARGE:  cpu time    3.31: real time    3.31
    MIXING:  cpu time    1.17: real time    1.17
    --------------------------------------------
      LOOP:  cpu time   58.84: real time   58.86

 eigenvalue-minimisations  :    29
 total energy-change (2. order) :-0.3639490E-05  (-0.1696993E-07)
 number of electron      12.0000127 magnetization       2.0000080
 augmentation part        1.0411011 magnetization       0.4914454

 Broyden mixing:
  rms(total) = 0.61982E-05    rms(broyden)= 0.61782E-05
  rms(prec ) = 0.85675E-05
  weight for this iteration     100.00

 eigenvalues of (default mixing * dielectric matrix)
  average eigenvalue GAMMA=   1.8626
  8.1117  4.9676  2.6723  2.6723  2.3396  1.6792  1.6219  1.0008  1.0008  0.8101
  0.8101  0.7889  0.7024  0.6626  0.6327  0.6196  0.5711

 Free energy of the ion-electron system (eV)
  ---------------------------------------------------
  alpha Z        PSCENC =         0.02383034
  Ewald energy   TEWEN  =       242.53224863
  -1/2 Hartree   DENC   =      -982.31975561
  -exchange  EXHF       =         0.00000000
  -V(xc)+E(xc)   XCENC  =        54.01115459
  PAW double counting   =       518.17236060     -521.76416485
  entropy T*S    EENTRO =         0.00057979
  eigenvalues    EBANDS =      -184.88820509
  atomic energy  EATOM  =       865.82426828
  ---------------------------------------------------
  free energy    TOTEN  =        -8.40768333 eV

  energy without entropy =       -8.40826312  energy(sigma->0) =       -8.40787659


--------------------------------------------------------------------------------------------------------




----------------------------------------- Iteration    1(  28)  ---------------------------------------


    POTLOK:  cpu time   48.12: real time   48.13
    SETDIJ:  cpu time    0.06: real time    0.06
    EDDIAG:  cpu time    1.85: real time    1.87
  RMM-DIIS:  cpu time    4.17: real time    4.17
    ORTHCH:  cpu time    0.05: real time    0.05
       DOS:  cpu time    0.00: real time    0.00
    CHARGE:  cpu time    3.13: real time    3.13
    MIXING:  cpu time    1.24: real time    1.24
    --------------------------------------------
      LOOP:  cpu time   58.62: real time   58.65

 eigenvalue-minimisations  :    28
 total energy-change (2. order) :-0.1501747E-05  (-0.7849485E-08)
 number of electron      12.0000127 magnetization       2.0000081
 augmentation part        1.0411007 magnetization       0.4914453

 Broyden mixing:
  rms(total) = 0.37798E-05    rms(broyden)= 0.37317E-05
  rms(prec ) = 0.52678E-05
  weight for this iteration     100.00

 eigenvalues of (default mixing * dielectric matrix)
  average eigenvalue GAMMA=   1.8672
  8.3793  5.2657  3.1323  2.5900  2.3869  1.6840  1.6405  1.0225  0.9791  0.9791
  0.8865  0.7725  0.7283  0.6920  0.6548  0.6297  0.6097  0.5776

 Free energy of the ion-electron system (eV)
  ---------------------------------------------------
  alpha Z        PSCENC =         0.02383034
  Ewald energy   TEWEN  =       242.53224863
  -1/2 Hartree   DENC   =      -982.31973142
  -exchange  EXHF       =         0.00000000
  -V(xc)+E(xc)   XCENC  =        54.01114006
  PAW double counting   =       518.17227273     -521.76407929
  entropy T*S    EENTRO =         0.00057979
  eigenvalues    EBANDS =      -184.88821394
  atomic energy  EATOM  =       865.82426828
  ---------------------------------------------------
  free energy    TOTEN  =        -8.40768483 eV

  energy without entropy =       -8.40826462  energy(sigma->0) =       -8.40787810


--------------------------------------------------------------------------------------------------------




----------------------------------------- Iteration    1(  29)  ---------------------------------------


    POTLOK:  cpu time   47.26: real time   47.27
    SETDIJ:  cpu time    0.06: real time    0.06
    EDDIAG:  cpu time    1.68: real time    1.68
  RMM-DIIS:  cpu time    3.32: real time    3.32
    ORTHCH:  cpu time    0.05: real time    0.05
       DOS:  cpu time    0.00: real time    0.00
    --------------------------------------------
      LOOP:  cpu time   52.37: real time   52.42

 eigenvalue-minimisations  :    22
 total energy-change (2. order) :-0.9287526E-06  (-0.1770740E-08)
 number of electron      12.0000127 magnetization       2.0000081
 augmentation part        1.0411007 magnetization       0.4914453

 Free energy of the ion-electron system (eV)
  ---------------------------------------------------
  alpha Z        PSCENC =         0.02383034
  Ewald energy   TEWEN  =       242.53224863
  -1/2 Hartree   DENC   =      -982.31978012
  -exchange  EXHF       =         0.00000000
  -V(xc)+E(xc)   XCENC  =        54.01113537
  PAW double counting   =       518.17215249     -521.76395404
  entropy T*S    EENTRO =         0.00057979
  eigenvalues    EBANDS =      -184.88816650
  atomic energy  EATOM  =       865.82426828
  ---------------------------------------------------
  free energy    TOTEN  =        -8.40768576 eV

  energy without entropy =       -8.40826555  energy(sigma->0) =       -8.40787902


--------------------------------------------------------------------------------------------------------




 average (electrostatic) potential at core
  the test charge radii are     0.7215
  (the norm of the test charge is              1.0000)
       1 -84.7046       2 -84.7046



 E-fermi :  -8.5694     XC(G=0):  -0.0031     alpha+bet : -0.0065


 spin component 1

 k-point   1 :       0.0000    0.0000    0.0000
  band No.  band energies     occupation 
      1     -28.6003      1.00000
      2     -22.6333      1.00000
      3     -12.9311      1.00000
      4     -11.7899      1.00000
      5     -11.7899      1.00000
      6      -8.5778      1.00000
      7      -8.5778      1.00000
      8      -3.7288      0.00000
      9      -0.1736      0.00000
     10       0.0336      0.00000
     11       0.1830      0.00000

 spin component 2

 k-point   1 :       0.0000    0.0000    0.0000
  band No.  band energies     occupation 
      1     -27.1799      1.00000
      2     -20.8463      1.00000
      3     -12.0307      1.00000
      4      -9.9655      1.00000
      5      -9.9655      1.00000
      6      -6.4362      0.00000
      7      -6.4362      0.00000
      8      -2.6828      0.00000
      9      -0.1155      0.00000
     10       0.0384      0.00000
     11       0.1698      0.00000


--------------------------------------------------------------------------------------------------------


 soft charge-density along one line, spin component            1
         0         1         2         3         4         5         6         7         8         9
 total charge-density along one line

 soft charge-density along one line, spin component            2
         0         1         2         3         4         5         6         7         8         9
 total charge-density along one line

 pseudopotential strength for first ion, spin component:            1
 14.909  -0.626   0.000  -0.062   0.000   0.000   0.002   0.000
 -0.626   0.150   0.000   0.009   0.000   0.000  -0.001   0.000
  0.000   0.000 -11.475   0.000   0.000   0.565   0.000   0.000
 -0.062   0.009   0.000 -11.445   0.000   0.000   0.546   0.000
  0.000   0.000   0.000   0.000 -11.475   0.000   0.000   0.565
  0.000   0.000   0.565   0.000   0.000  -0.013   0.000   0.000
  0.002  -0.001   0.000   0.546   0.000   0.000  -0.007   0.000
  0.000   0.000   0.000   0.000   0.565   0.000   0.000  -0.013
 pseudopotential strength for first ion, spin component:            2
 14.379  -0.550   0.000  -0.060   0.000   0.000   0.002   0.000
 -0.550   0.137   0.000   0.008   0.000   0.000  -0.001   0.000
  0.000   0.000 -10.886   0.000   0.000   0.413   0.000   0.000
 -0.060   0.008   0.000 -11.196   0.000   0.000   0.485   0.000
  0.000   0.000   0.000   0.000 -10.886   0.000   0.000   0.413
  0.000   0.000   0.413   0.000   0.000   0.036   0.000   0.000
  0.002  -0.001   0.000   0.485   0.000   0.000   0.013   0.000
  0.000   0.000   0.000   0.000   0.413   0.000   0.000   0.036
 total augmentation occupancy for first ion, spin component:            1
  2.001   0.050   0.000  -0.170   0.000   0.000  -0.004   0.000
  0.050   0.021   0.000   0.107   0.000   0.000   0.024   0.000
  0.000   0.000   1.498   0.000   0.000   0.031   0.000   0.000
 -0.170   0.107   0.000   1.103   0.000   0.000   0.141   0.000
  0.000   0.000   0.000   0.000   1.498   0.000   0.000   0.031
  0.000   0.000   0.031   0.000   0.000   0.005   0.000   0.000
 -0.004   0.024   0.000   0.141   0.000   0.000   0.029   0.000
  0.000   0.000   0.000   0.000   0.031   0.000   0.000   0.005
 total augmentation occupancy for first ion, spin component:            2
  0.022  -0.025   0.000   0.006   0.000   0.000  -0.002   0.000
 -0.025  -0.002   0.000   0.000   0.000   0.000  -0.001   0.000
  0.000   0.000   0.578   0.000   0.000  -0.039   0.000   0.000
  0.006   0.000   0.000   0.005   0.000   0.000  -0.007   0.000
  0.000   0.000   0.000   0.000   0.578   0.000   0.000  -0.039
  0.000   0.000  -0.039   0.000   0.000   0.000   0.000   0.000
 -0.002  -0.001   0.000  -0.007   0.000   0.000  -0.002   0.000
  0.000   0.000   0.000   0.000  -0.039   0.000   0.000   0.000


------------------------ aborting loop because EDIFF is reached ----------------------------------------


    CHARGE:  cpu time    2.92: real time    2.93
    FORLOC:  cpu time    0.18: real time    0.18
    FORNL :  cpu time    2.65: real time    2.65
    STRESS:  cpu time    8.31: real time    8.31
    FORHAR:  cpu time    1.78: real time    1.78
    MIXING:  cpu time    1.19: real time    1.19
    FORVDW:  cpu time    0.00: real time    0.00

  FORCE on cell =-STRESS in cart. coord.  units (eV):
  Direction    XX          YY          ZZ          XY          YZ          ZX
  --------------------------------------------------------------------------------------
  Alpha Z     0.02383     0.02383     0.02383
  Ewald     -32.61390   -32.61390   307.76013     0.00000     0.00000     0.00000
  Hartree   264.42386   264.42386   453.47230     0.00000     0.00000     0.00000
  E(xc)     -57.77333   -57.77333   -56.96686     0.00000     0.00000     0.00000
  Local    -413.38622  -413.38622  -912.92410     0.00000     0.00000     0.00000
  n-local   -41.47966   -41.47966   -38.69784     0.00000     0.00000     0.00000
  augment    13.01265    13.01265    10.09279     0.00000     0.00000     0.00000
  Kinetic   266.18596   266.18596   224.10068     0.00000     0.00000     0.00000
  Fock        0.00000     0.00000     0.00000     0.00000     0.00000     0.00000
  -------------------------------------------------------------------------------------
  Total      -1.60680    -1.60680   -13.13908     0.00000     0.00000     0.00000
  in kB      -0.11131    -0.11131    -0.91020     0.00000     0.00000     0.00000
  external pressure =       -0.38 kB  Pullay stress =        0.00 kB


 VOLUME and BASIS-vectors are now :
 -----------------------------------------------------------------------------
  energy-cutoff  :      400.00
  volume of cell :    23128.00
      direct lattice vectors                 reciprocal lattice vectors
    28.000000000  0.000000000  0.000000000     0.035714286  0.000000000  0.000000000
     0.000000000 28.000000000  0.000000000     0.000000000  0.035714286  0.000000000
     0.000000000  0.000000000 29.500000000     0.000000000  0.000000000  0.033898305

  length of vectors
    28.000000000 28.000000000 29.500000000     0.035714286  0.035714286  0.033898305


 FORCES acting on ions
    electron-ion (+dipol)            ewald-force                    non-local-force                 convergence-correction
 -----------------------------------------------------------------------------------------------
   0.122E-11 0.792E-12 0.206E+03   -.353E-17 -.251E-17 -.230E+03   0.362E-24 0.000E+00 0.325E+02   -.336E-13 -.294E-13 -.316E-04
   0.123E-11 0.256E-11 -.206E+03   -.367E-17 -.124E-17 0.230E+03   -.827E-24 0.414E-24 -.325E+02   0.229E-13 0.269E-13 0.316E-04
 -----------------------------------------------------------------------------------------------
   0.245E-11 0.335E-11 0.350E-11   -.720E-17 -.375E-17 0.000E+00   -.465E-24 0.414E-24 0.000E+00   -.107E-13 -.243E-14 0.165E-12


 POSITION                                       TOTAL-FORCE (eV/Angst)
 -----------------------------------------------------------------------------------
     14.00000     14.00000     14.00000         0.000000      0.000000      7.977785
     14.00000     14.00000     15.50000         0.000000      0.000000     -7.977785
 -----------------------------------------------------------------------------------
    total drift:                                0.000000      0.000000      0.000000


--------------------------------------------------------------------------------------------------------



  FREE ENERGIE OF THE ION-ELECTRON SYSTEM (eV)
  ---------------------------------------------------
  free  energy   TOTEN  =        -8.40768576 eV

  energy  without entropy=       -8.40826555  energy(sigma->0) =       -8.40787902



--------------------------------------------------------------------------------------------------------


    POTLOK:  cpu time   47.13: real time   47.14


--------------------------------------------------------------------------------------------------------


 stress matrix after NEB project (eV)
     -1.60680      0.00000      0.00000
      0.00000     -1.60680      0.00000
      0.00000      0.00000    -13.13908
  FORCES: max atom, RMS     7.977785    7.977785
  FORCE total and by dimension   11.282291    7.977785
  Stress total and by dimension   13.334127   13.139075
 Quasi-Newton relaxation of ions (Broydens 2nd method)
  g(Force)  = 0.246E+01   g(Stress)= 0.000E+00

 Reset! Starting new Quasi-Newton update for ions 


--------------------------------------------------------------------------------------------------------


    WAVPRE:  cpu time    0.38: real time    0.38
 FEWALD executed in parallel
    FEWALD:  cpu time    0.01: real time    0.01

 real space projection operators:
  total allocation   :        136.63 KBytes
  max/ min on nodes  :         19.00         15.38

    ORTHCH:  cpu time    0.85: real time    0.86
     LOOP+:  cpu time 1361.40: real time 1361.96


[...]
  0.000   0.000   0.000   0.000   0.572   0.000   0.000  -0.063
  0.000   0.000  -0.063   0.000   0.000   0.001   0.000   0.000
 -0.004  -0.002   0.000  -0.008   0.000   0.000  -0.003   0.000
  0.000   0.000   0.000   0.000  -0.063   0.000   0.000   0.001


------------------------ aborting loop because EDIFF is reached ----------------------------------------


    CHARGE:  cpu time    3.10: real time    3.10
    FORLOC:  cpu time    0.19: real time    0.19
    FORNL :  cpu time    2.67: real time    2.67
    STRESS:  cpu time    8.89: real time    8.90
    FORHAR:  cpu time    1.98: real time    1.98
    MIXING:  cpu time    0.46: real time    0.46
    FORVDW:  cpu time    0.00: real time    0.00

  FORCE on cell =-STRESS in cart. coord.  units (eV):
  Direction    XX          YY          ZZ          XY          YZ          ZX
  --------------------------------------------------------------------------------------
  Alpha Z     0.02383     0.02383     0.02383
  Ewald     -32.59255   -32.59255   382.32284     0.00000     0.00000     0.00000
  Hartree   286.81173   286.81173   476.65474     0.00000     0.00000     0.00000
  E(xc)     -59.29652   -59.29652   -58.09818     0.00000     0.00000     0.00000
  Local    -439.16882  -439.16882  -999.29879     0.00000     0.00000     0.00000
  n-local   -42.35513   -42.35513   -45.91943     0.00000     0.00000     0.00000
  augment    13.79231    13.79231    11.13276     0.00000     0.00000     0.00000
  Kinetic   271.20229   271.20229   232.16938     0.00000     0.00000     0.00000
  Fock        0.00000     0.00000     0.00000     0.00000     0.00000     0.00000
  -------------------------------------------------------------------------------------
  Total      -1.58287    -1.58287    -1.01286     0.00000     0.00000     0.00000
  in kB      -0.10965    -0.10965    -0.07016     0.00000     0.00000     0.00000
  external pressure =       -0.10 kB  Pullay stress =        0.00 kB


 VOLUME and BASIS-vectors are now :
 -----------------------------------------------------------------------------
  energy-cutoff  :      400.00
  volume of cell :    23128.00
      direct lattice vectors                 reciprocal lattice vectors
    28.000000000  0.000000000  0.000000000     0.035714286  0.000000000  0.000000000
     0.000000000 28.000000000  0.000000000     0.000000000  0.035714286  0.000000000
     0.000000000  0.000000000 29.500000000     0.000000000  0.000000000  0.033898305

  length of vectors
    28.000000000 28.000000000 29.500000000     0.035714286  0.035714286  0.033898305


 FORCES acting on ions
    electron-ion (+dipol)            ewald-force                    non-local-force                 convergence-correction
 -----------------------------------------------------------------------------------------------
   0.134E-11 0.399E-11 0.288E+03   0.676E-17 0.193E-17 -.341E+03   0.000E+00 0.414E-23 0.525E+02   -.231E-13 -.217E-12 0.125E-03
   0.135E-11 0.162E-11 -.288E+03   -.140E-16 -.567E-17 0.341E+03   0.165E-23 -.248E-23 -.525E+02   0.333E-13 -.368E-13 -.125E-03
 -----------------------------------------------------------------------------------------------
   0.269E-11 0.561E-11 0.557E-11   -.720E-17 -.375E-17 0.000E+00   0.165E-23 0.165E-23 0.000E+00   0.102E-13 -.254E-12 0.562E-12


 POSITION                                       TOTAL-FORCE (eV/Angst)
 -----------------------------------------------------------------------------------
     14.00000     14.00000     14.13320         0.000000      0.000000     -0.124272
     14.00000     14.00000     15.36680         0.000000      0.000000      0.124272
 -----------------------------------------------------------------------------------
    total drift:                                0.000000      0.000000      0.000000


--------------------------------------------------------------------------------------------------------



  FREE ENERGIE OF THE ION-ELECTRON SYSTEM (eV)
  ---------------------------------------------------
  free  energy   TOTEN  =        -9.81825140 eV

  energy  without entropy=       -9.81825140  energy(sigma->0) =       -9.81825140

 d Force = 0.2355887E-02[-0.127E-02, 0.599E-02]  d Energy = 0.2998360E-02-0.642E-03
 d Force =-0.3464109E+01[-0.349E+01,-0.344E+01]  d Ewald  =-0.3463991E+01-0.118E-03


--------------------------------------------------------------------------------------------------------


    POTLOK:  cpu time   48.05: real time   48.05


--------------------------------------------------------------------------------------------------------


 stress matrix after NEB project (eV)
     -1.58287      0.00000      0.00000
      0.00000     -1.58287      0.00000
      0.00000      0.00000     -1.01286
  FORCES: max atom, RMS     0.124272    0.124272
  FORCE total and by dimension    0.175747    0.124272
  Stress total and by dimension    2.456991    1.582866
 Quasi-Newton relaxation of ions (Broydens 2nd method)
  g(Force)  = 0.596E-03   g(Stress)= 0.000E+00

 retain information from N=  1 steps
 eigenvalues of (default step * inverse Hessian matrix)
  average eigenvalue of G=   0.3754
 eigenvalue spectrum of G is  0.3754


--------------------------------------------------------------------------------------------------------


    WAVPRE:  cpu time    0.39: real time    0.39
 FEWALD executed in parallel
    FEWALD:  cpu time    0.00: real time    0.00

 real space projection operators:
  total allocation   :        135.13 KBytes
  max/ min on nodes  :         18.25         15.63

    ORTHCH:  cpu time    0.94: real time    0.94
     LOOP+:  cpu time  415.23: real time  415.43


----------------------------------------- Iteration    6(   1)  ---------------------------------------


    POTLOK:  cpu time   47.62: real time   47.63
    SETDIJ:  cpu time    0.06: real time    0.06
     EDDAV:  cpu time   10.22: real time   10.22
       DOS:  cpu time    0.00: real time    0.00
    CHARGE:  cpu time    3.22: real time    3.22
    MIXING:  cpu time    0.31: real time    0.31
    --------------------------------------------
      LOOP:  cpu time   61.44: real time   61.45

 eigenvalue-minimisations  :    56
 total energy-change (2. order) : 0.4775168E-03  (-0.1006010E-02)
 number of electron      12.0000159 magnetization       2.0000086
 augmentation part        1.1484194 magnetization       0.4945041

  free energy =  -0.981777315100E+01  energy without entropy=  -0.981835294153E+01


--------------------------------------------------------------------------------------------------------




----------------------------------------- Iteration    6(   2)  ---------------------------------------


    POTLOK:  cpu time   47.83: real time   47.83
    SETDIJ:  cpu time    0.06: real time    0.07
    EDDIAG:  cpu time    1.85: real time    1.85
  RMM-DIIS:  cpu time    5.92: real time    5.92
    ORTHCH:  cpu time    0.05: real time    0.05
       DOS:  cpu time    0.00: real time    0.00
    CHARGE:  cpu time    3.23: real time    3.23
    MIXING:  cpu time    0.37: real time    0.37
    --------------------------------------------
      LOOP:  cpu time   59.31: real time   59.33

 eigenvalue-minimisations  :    44
 total energy-change (2. order) :-0.1164838E-04  (-0.1369937E-04)
 number of electron      12.0000159 magnetization       2.0000086
 augmentation part        1.1483898 magnetization       0.4945640

 eigenvalues of (default mixing * dielectric matrix)
  average eigenvalue GAMMA=   0.7365
  0.7365

  free energy =  -0.981778479938E+01  energy without entropy=  -0.981836458991E+01


--------------------------------------------------------------------------------------------------------




----------------------------------------- Iteration    6(   3)  ---------------------------------------


    POTLOK:  cpu time   47.82: real time   47.83
    SETDIJ:  cpu time    0.06: real time    0.06
    EDDIAG:  cpu time    1.86: real time    1.86
  RMM-DIIS:  cpu time    5.92: real time    5.92
    ORTHCH:  cpu time    0.05: real time    0.05
       DOS:  cpu time    0.00: real time    0.00
    CHARGE:  cpu time    3.23: real time    3.23
    MIXING:  cpu time    0.37: real time    0.37
    --------------------------------------------
      LOOP:  cpu time   59.31: real time   59.51

 eigenvalue-minimisations  :    44
 total energy-change (2. order) :-0.1005611E-05  (-0.7875895E-06)
 number of electron      12.0000159 magnetization       2.0000086
 augmentation part        1.1484639 magnetization       0.4946045

 eigenvalues of (default mixing * dielectric matrix)
  average eigenvalue GAMMA=   1.1308
  0.6981  1.5634

  free energy =  -0.981778580499E+01  energy without entropy=  -0.981836559552E+01


--------------------------------------------------------------------------------------------------------




----------------------------------------- Iteration    6(   4)  ---------------------------------------


    POTLOK:  cpu time   47.17: real time   47.18
    SETDIJ:  cpu time    0.06: real time    0.06
    EDDIAG:  cpu time    1.67: real time    1.67
  RMM-DIIS:  cpu time    4.84: real time    4.84
    ORTHCH:  cpu time    0.05: real time    0.05
       DOS:  cpu time    0.00: real time    0.00
    --------------------------------------------
      LOOP:  cpu time   53.79: real time   53.82

 eigenvalue-minimisations  :    41
 total energy-change (2. order) : 0.6610853E-06  (-0.5111000E-06)
 number of electron      12.0000159 magnetization       2.0000086
 augmentation part        1.1484639 magnetization       0.4946045

  free energy =  -0.981778514390E+01  energy without entropy=  -0.981836493444E+01


--------------------------------------------------------------------------------------------------------




 average (electrostatic) potential at core
  the test charge radii are     0.7215
  (the norm of the test charge is              1.0000)
       1 -84.7492       2 -84.7492



 E-fermi :  -7.0992     XC(G=0):   0.0239     alpha+bet : -0.0065


 spin component 1

 k-point   1 :       0.0000    0.0000    0.0000
  band No.  band energies     occupation 
      1     -32.6243      1.00000
      2     -20.7823      1.00000
      3     -13.6199      1.00000
      4     -13.4014      1.00000
      5     -13.4014      1.00000
      6      -7.1076      1.00000
      7      -7.1076      1.00000
      8      -0.1575      0.00000
      9       0.0739      0.00000
     10       0.2213      0.00000
     11       0.2517      0.00000

 spin component 2

 k-point   1 :       0.0000    0.0000    0.0000
  band No.  band energies     occupation 
      1     -31.3448      1.00000
      2     -18.9966      1.00000
      3     -12.5775      1.00000
      4     -11.5943      1.00000
      5     -11.5943      1.00000
      6      -4.9061      0.00000
      7      -4.9061      0.00000
      8      -0.0418      0.00000
      9       0.0546      0.00000
     10       0.1701      0.00000
     11       0.1905      0.00000


--------------------------------------------------------------------------------------------------------


 soft charge-density along one line, spin component            1
         0         1         2         3         4         5         6         7         8         9
 total charge-density along one line

 soft charge-density along one line, spin component            2
         0         1         2         3         4         5         6         7         8         9
 total charge-density along one line

 pseudopotential strength for first ion, spin component:            1
 14.912  -0.623   0.000  -0.130   0.000   0.000   0.005   0.000
 -0.623   0.149   0.000   0.015   0.000   0.000  -0.003   0.000
  0.000   0.000 -11.447   0.000   0.000   0.551   0.000   0.000
 -0.130   0.015   0.000 -11.467   0.000   0.000   0.537   0.000
  0.000   0.000   0.000   0.000 -11.447   0.000   0.000   0.551
  0.000   0.000   0.551   0.000   0.000  -0.008   0.000   0.000
  0.005  -0.003   0.000   0.537   0.000   0.000  -0.004   0.000
  0.000   0.000   0.000   0.000   0.551   0.000   0.000  -0.008
 pseudopotential strength for first ion, spin component:            2
 14.378  -0.546   0.000  -0.130   0.000   0.000   0.006   0.000
 -0.546   0.137   0.000   0.015   0.000   0.000  -0.003   0.000
  0.000   0.000 -10.848   0.000   0.000   0.395   0.000   0.000
 -0.130   0.015   0.000 -11.222   0.000   0.000   0.476   0.000
  0.000   0.000   0.000   0.000 -10.848   0.000   0.000   0.395
  0.000   0.000   0.395   0.000   0.000   0.042   0.000   0.000
  0.006  -0.003   0.000   0.476   0.000   0.000   0.017   0.000
  0.000   0.000   0.000   0.000   0.395   0.000   0.000   0.042
 total augmentation occupancy for first ion, spin component:            1
  1.957   0.101   0.000  -0.197   0.000   0.000   0.034   0.000
  0.101   0.058   0.000   0.186   0.000   0.000   0.066   0.000
  0.000   0.000   1.527   0.000   0.000   0.054   0.000   0.000
 -0.197   0.186   0.000   1.333   0.000   0.000   0.260   0.000
  0.000   0.000   0.000   0.000   1.527   0.000   0.000   0.054
  0.000   0.000   0.054   0.000   0.000   0.016   0.000   0.000
  0.034   0.066   0.000   0.260   0.000   0.000   0.080   0.000
  0.000   0.000   0.000   0.000   0.054   0.000   0.000   0.016
 total augmentation occupancy for first ion, spin component:            2
  0.024  -0.026   0.000   0.003   0.000   0.000  -0.004   0.000
 -0.026  -0.003   0.000  -0.001   0.000   0.000  -0.002   0.000
  0.000   0.000   0.572   0.000   0.000  -0.062   0.000   0.000
  0.003  -0.001   0.000   0.001   0.000   0.000  -0.008   0.000
  0.000   0.000   0.000   0.000   0.572   0.000   0.000  -0.062
  0.000   0.000  -0.062   0.000   0.000   0.001   0.000   0.000
 -0.004  -0.002   0.000  -0.008   0.000   0.000  -0.003   0.000
  0.000   0.000   0.000   0.000  -0.062   0.000   0.000   0.001


------------------------ aborting loop because EDIFF is reached ----------------------------------------


    CHARGE:  cpu time    2.92: real time    2.92
    FORLOC:  cpu time    0.18: real time    0.19
    FORNL :  cpu time    2.63: real time    2.63
    STRESS:  cpu time    8.24: real time    8.26
    FORHAR:  cpu time    1.80: real time    1.80
    MIXING:  cpu time    0.37: real time    0.37
    FORVDW:  cpu time    0.00: real time    0.00

  FORCE on cell =-STRESS in cart. coord.  units (eV):
  Direction    XX          YY          ZZ          XY          YZ          ZX
  --------------------------------------------------------------------------------------
  Alpha Z     0.02383     0.02383     0.02383
  Ewald     -32.59268   -32.59268   381.71089     0.00000     0.00000     0.00000
  Hartree   286.62786   286.62786   476.48595     0.00000     0.00000     0.00000
  E(xc)     -59.28298   -59.28298   -58.08757     0.00000     0.00000     0.00000
  Local    -438.95402  -438.95402  -998.65286     0.00000     0.00000     0.00000
  n-local   -42.34543   -42.34543   -45.85845     0.00000     0.00000     0.00000
  augment    13.78315    13.78315    11.12562     0.00000     0.00000     0.00000
  Kinetic   271.15371   271.15371   232.08265     0.00000     0.00000     0.00000
  Fock        0.00000     0.00000     0.00000     0.00000     0.00000     0.00000
  -------------------------------------------------------------------------------------
  Total      -1.58657    -1.58657    -1.16995     0.00000     0.00000     0.00000
  in kB      -0.10991    -0.10991    -0.08105     0.00000     0.00000     0.00000
  external pressure =       -0.10 kB  Pullay stress =        0.00 kB


 VOLUME and BASIS-vectors are now :
 -----------------------------------------------------------------------------
  energy-cutoff  :      400.00
  volume of cell :    23128.00
      direct lattice vectors                 reciprocal lattice vectors
    28.000000000  0.000000000  0.000000000     0.035714286  0.000000000  0.000000000
     0.000000000 28.000000000  0.000000000     0.000000000  0.035714286  0.000000000
     0.000000000  0.000000000 29.500000000     0.000000000  0.000000000  0.033898305

  length of vectors
    28.000000000 28.000000000 29.500000000     0.035714286  0.035714286  0.033898305


 FORCES acting on ions
    electron-ion (+dipol)            ewald-force                    non-local-force                 convergence-correction
 -----------------------------------------------------------------------------------------------
   0.134E-11 0.704E-12 0.287E+03   -.219E-17 0.246E-17 -.340E+03   0.000E+00 0.331E-22 0.524E+02   -.298E-13 0.534E-12 -.238E-02
   0.135E-11 0.241E-11 -.287E+03   -.501E-17 -.621E-17 0.340E+03   0.000E+00 -.331E-22 -.524E+02   0.322E-13 0.374E-12 0.238E-02
 -----------------------------------------------------------------------------------------------
   0.269E-11 0.312E-11 0.568E-11   -.720E-17 -.375E-17 0.000E+00   0.000E+00 0.000E+00 0.711E-14   0.234E-14 0.908E-12 0.438E-12


 POSITION                                       TOTAL-FORCE (eV/Angst)
 -----------------------------------------------------------------------------------
     14.00000     14.00000     14.13230         0.000000      0.000000      0.004952
     14.00000     14.00000     15.36770         0.000000      0.000000     -0.004952
 -----------------------------------------------------------------------------------
    total drift:                                0.000000      0.000000      0.000000


--------------------------------------------------------------------------------------------------------



  FREE ENERGIE OF THE ION-ELECTRON SYSTEM (eV)
  ---------------------------------------------------
  free  energy   TOTEN  =        -9.81778514 eV

  energy  without entropy=       -9.81836493  energy(sigma->0) =       -9.81797841

 d Force = 0.1074079E-03[-0.891E-05, 0.224E-03]  d Energy =-0.4662516E-03 0.574E-03
 d Force = 0.6122221E+00[ 0.611E+00, 0.613E+00]  d Ewald  = 0.6122215E+00 0.661E-06


--------------------------------------------------------------------------------------------------------


    POTLOK:  cpu time   46.86: real time   46.86


--------------------------------------------------------------------------------------------------------


 stress matrix after NEB project (eV)
     -1.58657      0.00000      0.00000
      0.00000     -1.58657      0.00000
      0.00000      0.00000     -1.16995
  FORCES: max atom, RMS     0.004952    0.004952
  FORCE total and by dimension    0.007003    0.004952
  Stress total and by dimension    2.530446    1.586566
 Quasi-Newton relaxation of ions (Broydens 2nd method)
  g(Force)  = 0.946E-06   g(Stress)= 0.000E+00

 retain information from N=  1 steps
 eigenvalues of (default step * inverse Hessian matrix)
  average eigenvalue of G=   0.3610
 eigenvalue spectrum of G is  0.3610


--------------------------------------------------------------------------------------------------------


  
 reached required accuracy - stopping structural energy minimisation
     LOOP+:  cpu time  296.91: real time  297.22
    4ORBIT:  cpu time    0.00: real time    0.00

 total amount of memory used by VASP on root node   388402. kBytes
========================================================================

   base      :      30000. kBytes
   nonlr-proj:         57. kBytes
   fftplans  :     106425. kBytes
   grid      :     233421. kBytes
   one-center:          6. kBytes
   wavefun   :      18493. kBytes

  
  
 General timing and accounting informations for this job:
 ========================================================
  
                  Total CPU time used (sec):     5500.293
                            User time (sec):     5499.632
                          System time (sec):        0.661
                         Elapsed time (sec):     5504.072
  
                   Maximum memory used (kb):           0.
                   Average memory used (kb):           0.
  
                          Minor page faults:       200313
                          Major page faults:           44
                 Voluntary context switches:         1337
