unknown system                          
            1
    28.000000    0.000000    0.000000
     0.000000   28.000000    0.000000
     0.000000    0.000000   29.500000
   O 
   2
Direct configuration=     1
   0.50000000  0.50000000  0.47457627
   0.50000000  0.50000000  0.52542373
Direct configuration=     2
   0.50000000  0.50000000  0.47979484
   0.50000000  0.50000000  0.52020516
Direct configuration=     3
   0.50000000  0.50000000  0.47816460
   0.50000000  0.50000000  0.52183540
Direct configuration=     4
   0.50000000  0.50000000  0.47891781
   0.50000000  0.50000000  0.52108219
Direct configuration=     5
   0.50000000  0.50000000  0.47909164
   0.50000000  0.50000000  0.52090836
Direct configuration=     6
   0.50000000  0.50000000  0.47906113
   0.50000000  0.50000000  0.52093887
