    2    2 1000    2
  0.1156400E+05  0.2800000E-08  0.2800000E-08  0.2950000E-08  0.2000000E-15
   1.0000000000000000E-004
  CAR 
 unknown system                          
   12    1   11

  0.1262379E-14  0.1262379E-14  0.1262379E-14  0.1000000E+01
   1      -32.613890    -31.334613
   2      -20.785200    -18.999363
   3      -13.618911    -12.577403
   4      -13.396991    -11.589701
   5      -13.396991    -11.589701
   6       -7.110291     -4.908562
   7       -7.110291     -4.908562
   8       -0.169225     -0.055339
   9        0.012881      0.046183
  10        0.136777      0.166514
  11        0.174305      0.188832
