 vasp.5.3.2 13Sep12 (build Mar 13 2013 15:03:29) complex                         
 executed on             LinuxPgi date 2016.05.04  13:50:36
 running on    8 total cores
 distrk:  each k-point on    8 cores,    1 groups
 distr:  one band on NCORES_PER_BAND=   8 cores,    1 groups


--------------------------------------------------------------------------------------------------------


 INCAR:
 POTCAR:   PAW_GGA O 05Jan2001                    

 ----------------------------------------------------------------------------- 
|                                                                             |
|           W    W    AA    RRRRR   N    N  II  N    N   GGGG   !!!           |
|           W    W   A  A   R    R  NN   N  II  NN   N  G    G  !!!           |
|           W    W  A    A  R    R  N N  N  II  N N  N  G       !!!           |
|           W WW W  AAAAAA  RRRRR   N  N N  II  N  N N  G  GGG   !            |
|           WW  WW  A    A  R   R   N   NN  II  N   NN  G    G                |
|           W    W  A    A  R    R  N    N  II  N    N   GGGG   !!!           |
|                                                                             |
|      For optimal performance we recommend that you set                      |
|        NPAR = 4 - approx SQRT( number of cores)                             |
|      (number of cores/NPAR must be integer)                                 |
|      This setting will greatly improve the performance of VASP for DFT.     |
|      The default NPAR=number of cores might be grossly inefficient          |
|      on modern multi-core architectures or massively parallel machines.     |
|      Do your own testing.                                                   |
|      Unfortunately you need to use the default for hybrid, GW and RPA       |
|      calculations.                                                          |
|                                                                             |
 ----------------------------------------------------------------------------- 

 POTCAR:   PAW_GGA O 05Jan2001                    
  local pseudopotential read in
  atomic valenz-charges read in
  non local Contribution for L=            0  read in
    real space projection operators read in
  non local Contribution for L=            0  read in
    real space projection operators read in
  non local Contribution for L=            1  read in
    real space projection operators read in
  non local Contribution for L=            1  read in
    real space projection operators read in
    PAW grid and wavefunctions read in

   number of l-projection  operators is LMAX  =            4
   number of lm-projection operators is LMMAX =            8


 ----------------------------------------------------------------------------- 
|                                                                             |
|  ADVICE TO THIS USER RUNNING 'VASP/VAMP'   (HEAR YOUR MASTER'S VOICE ...):  |
|                                                                             |
|      You have a (more or less) 'small supercell' and for smaller cells      |
|      it is recommended  to use the reciprocal-space projection scheme!      |
|      The real space optimization is not  efficient for small cells and it   |
|      is also less accurate ...                                              |
|      Therefore set LREAL=.FALSE. in the  INCAR file                         |
|                                                                             |
 ----------------------------------------------------------------------------- 

 Optimization of the real space projectors (new method)

 maximal supplied QI-value         = 24.76
 optimisation between [QCUT,QGAM] = [ 10.15, 20.30] = [ 28.85,115.39] Ry 
 Optimized for a Real-space Cutoff    1.30 Angstroem

   l    n(q)    QCUT    max X(q) W(low)/X(q) W(high)/X(q)  e(spline) 
   0      8    10.150     4.138    0.54E-04    0.57E-04    0.73E-07
   0      8    10.150     8.500    0.47E-03    0.69E-03    0.22E-06
   1      7    10.150     2.482    0.11E-03    0.90E-04    0.31E-07
   1      7    10.150     3.878    0.45E-03    0.49E-03    0.15E-06
 PAW_GGA O 05Jan2001                    :
 energy of atom  1       EATOM= -433.0277
 kinetic energy error for atom=    0.1156 (will be added to EATOM!!)


 POSCAR:  O                                      
  positions in cartesian coordinates
  No initial velocities read in
 exchange correlation table for  LEXCH =        7
   RHO(1)=    0.500       N(1)  =     2000
   RHO(2)=  100.500       N(2)  =     4000

 VTST: version 3.0, (09/19/12)

 CHAIN: initializing optimizer
 
 OPT: Using VASP QUASI-newton optimizer
 CHAIN: Read ICHAIN             0

 POSCAR:  O                                      
  positions in cartesian coordinates
  No initial velocities read in



--------------------------------------------------------------------------------------------------------


 ion  position               nearest neighbor table
   1  0.500  0.500  0.475-   2 1.40
   2  0.500  0.500  0.522-   1 1.40

  LATTYP: Found a simple tetragonal cell.
 ALAT       =    28.0000000000
 C/A-ratio  =     1.0535714286
  
  Lattice vectors:
  
 A1 = (  28.0000000000,   0.0000000000,   0.0000000000)
 A2 = (   0.0000000000,  28.0000000000,   0.0000000000)
 A3 = (   0.0000000000,   0.0000000000,  29.5000000000)


Analysis of symmetry for initial positions (statically):
=====================================================================
 Subroutine PRICEL returns:
 Original cell was already a primitive cell.
 

 Routine SETGRP: Setting up the symmetry group for a 
 simple tetragonal supercell.


 Subroutine GETGRP returns: Found 16 space group operations
 (whereof  8 operations were pure point group operations)
 out of a pool of 16 trial point group operations.


The static configuration has the point symmetry C_4v.
 The point group associated with its full space group is D_4h.


Analysis of symmetry for dynamics (positions and initial velocities):
=====================================================================
 Subroutine PRICEL returns:
 Original cell was already a primitive cell.
 

 Routine SETGRP: Setting up the symmetry group for a 
 simple tetragonal supercell.


 Subroutine GETGRP returns: Found 16 space group operations
 (whereof  8 operations were pure point group operations)
 out of a pool of 16 trial point group operations.


The dynamic configuration has the point symmetry C_4v.
 The point group associated with its full space group is D_4h.


Analysis of magnetic symmetry:
=====================================================================

 Subroutine MAGSYM returns: Found 16 space group operations
 (whereof  8 operations were pure point group operations)
 out of a pool of 16 trial space group operations
 (whereof  8 operations were pure point group operations)
 and found also     1 'primitive' translations


The magnetic configuration has the point symmetry C_4v.
 The point group associated with its full space group is D_4h.


 KPOINTS: KPOINTS created by Atomic Simulation Env

Automatic generation of k-mesh.
Space group operators:
 irot       det(A)        alpha          n_x          n_y          n_z        tau_x        tau_y        tau_z
    1     1.000000     0.000000     1.000000     0.000000     0.000000     0.000000     0.000000     0.000000
    2     1.000000    90.000000     0.000000     0.000000    -1.000000     0.000000     0.000000     0.000000
    3     1.000000   179.999999     0.000000     0.000000     1.000000     0.000000     0.000000     0.000000
    4     1.000000    90.000000     0.000000     0.000000     1.000000     0.000000     0.000000     0.000000
    5    -1.000000   180.000000     0.000000     1.000000     0.000000     0.000000     0.000000     0.000000
    6    -1.000000   180.000000     0.707107     0.707107     0.000000     0.000000     0.000000     0.000000
    7    -1.000000   180.000000     1.000000     0.000000     0.000000     0.000000     0.000000     0.000000
    8    -1.000000   180.000000     0.707107    -0.707107     0.000000     0.000000     0.000000     0.000000
    9    -1.000000     0.000000     1.000000     0.000000     0.000000     0.000000     0.000000     0.996610
   10    -1.000000    90.000000     0.000000     0.000000    -1.000000     0.000000     0.000000     0.996610
   11    -1.000000   179.999999     0.000000     0.000000     1.000000     0.000000     0.000000     0.996610
   12    -1.000000    90.000000     0.000000     0.000000     1.000000     0.000000     0.000000     0.996610
   13     1.000000   180.000000     0.000000     1.000000     0.000000     0.000000     0.000000     0.996610
   14     1.000000   180.000000     0.707107     0.707107     0.000000     0.000000     0.000000     0.996610
   15     1.000000   180.000000     1.000000     0.000000     0.000000     0.000000     0.000000     0.996610
   16     1.000000   180.000000     0.707107    -0.707107     0.000000     0.000000     0.000000     0.996610
 
 Subroutine IBZKPT returns following result:
 ===========================================
 
 Found      1 irreducible k-points:
 
 Following reciprocal coordinates:
            Coordinates               Weight
  0.000000  0.000000  0.000000      1.000000
 
 Following cartesian coordinates:
            Coordinates               Weight
  0.000000  0.000000  0.000000      1.000000
 


--------------------------------------------------------------------------------------------------------




 Dimension of arrays:
   k-points           NKPTS =      1   k-points in BZ     NKDIM =      1   number of bands    NBANDS=     11
   number of dos      NEDOS =    301   number of ions     NIONS =      2
   non local maximal  LDIM  =      4   non local SUM 2l+1 LMDIM =      8
   total plane-waves  NPLWV = ******
   max r-space proj   IRMAX =   1176   max aug-charges    IRDMAX=   1783
   dimension x,y,z NGX =   140 NGY =  140 NGZ =  144
   dimension x,y,z NGXF=   280 NGYF=  280 NGZF=  288
   support grid    NGXF=   280 NGYF=  280 NGZF=  288
   ions per type =               2
 NGX,Y,Z   is equivalent  to a cutoff of   8.31,  8.31,  8.12 a.u.
 NGXF,Y,Z  is equivalent  to a cutoff of  16.62, 16.62, 16.23 a.u.


 I would recommend the setting:
   dimension x,y,z NGX =   137 NGY =  137 NGZ =  144
 SYSTEM =  unknown system                          
 POSCAR =   O                                      

 Startparameter for this run:
   NWRITE =      1    write-flag & timer
   PREC   = normal    normal or accurate (medium, high low for compatibility)
   ISTART =      0    job   : 0-new  1-cont  2-samecut
   ICHARG =      2    charge: 1-file 2-atom 10-const
   ISPIN  =      2    spin polarized calculation?
   LNONCOLLINEAR =      F non collinear calculations
   LSORBIT =      F    spin-orbit coupling
   INIWAV =      1    electr: 0-lowe 1-rand  2-diag
   LASPH  =      F    aspherical Exc in radial PAW
   METAGGA=      F    non-selfconsistent MetaGGA calc.

 Electronic Relaxation 1
   ENCUT  =  400.0 eV  29.40 Ry    5.42 a.u.  45.66 45.66 48.11*2*pi/ulx,y,z
   ENINI  =  400.0     initial cutoff
   ENAUG  =  605.4 eV  augmentation charge cutoff
   NELM   =    400;   NELMIN=  2; NELMDL=-10     # of ELM steps 
   EDIFF  = 0.1E-05   stopping-criterion for ELM
   LREAL  =      T    real-space projection
   NLSPLINE    = F    spline interpolate recip. space projectors
   LCOMPAT=      F    compatible to vasp.4.4
   GGA_COMPAT  = T    GGA compatible to vasp.4.4-vasp.4.6
   LMAXPAW     = -100 max onsite density
   LMAXMIX     =    2 max onsite mixed and CHGCAR
   VOSKOWN=      1    Vosko Wilk Nusair interpolation
   ROPT   =   -0.00050
 Ionic relaxation
   EDIFFG = -.4E-01   stopping-criterion for IOM
   NSW    =   1000    number of steps for IOM
   NBLOCK =      1;   KBLOCK =   1000    inner block; outer block 
   IBRION =      1    ionic relax: 0-MD 1-quasi-New 2-CG
   NFREE  =      2    steps in history (QN), initial steepest desc. (CG)
   ISIF   =      2    stress and relaxation
   IWAVPR =     11    prediction:  0-non 1-charg 2-wave 3-comb
   ISYM   =      2    0-nonsym 1-usesym 2-fastsym
   LCORR  =      T    Harris-Foulkes like correction to forces

   POTIM  = 0.2000    time-step for ionic-motion
   TEIN   =    0.0    initial temperature
   TEBEG  =    0.0;   TEEND  =   0.0 temperature during run
   SMASS  =  -3.00    Nose mass-parameter (am)
   estimated Nose-frequenzy (Omega)   =  0.10E-29 period in steps =****** mass=  -0.179E-25a.u.
   SCALEE = 1.0000    scale energy and forces
   NPACO  =    256;   APACO  = 16.0  distance and # of slots for P.C.
   PSTRESS=    0.0 pullay stress

  Mass of Ions in am
   POMASS =  16.00
  Ionic Valenz
   ZVAL   =   6.00
  Atomic Wigner-Seitz radii
   RWIGS  =  -1.00
  virtual crystal weights 
   VCA    =   1.00
   NELECT =      12.0000    total number of electrons
   NUPDOWN=      -1.0000    fix difference up-down

 DOS related values:
   EMIN   =  10.00;   EMAX   =-10.00  energy-range for DOS
   EFERMI =   0.00
   ISMEAR =     1;   SIGMA  =   0.01  broadening in eV -4-tet -1-fermi 0-gaus

 Electronic relaxation 2 (details)
   IALGO  =     68    algorithm
   LDIAG  =      T    sub-space diagonalisation (order eigenvalues)
   LSUBROT=      T    optimize rotation matrix (better conditioning)
   TURBO    =      0    0=normal 1=particle mesh
   IRESTART =      0    0=no restart 2=restart with 2 vectors
   NREBOOT  =      0    no. of reboots
   NMIN     =      0    reboot dimension
   EREF     =   0.00    reference energy to select bands
   IMIX   =      4    mixing-type and parameters
     AMIX     =   0.40;   BMIX     =  1.00
     AMIX_MAG =   1.60;   BMIX_MAG =  1.00
     AMIN     =   0.10
     WC   =   100.;   INIMIX=   1;  MIXPRE=   1;  MAXMIX= -45

 Intra band minimization:
   WEIMIN = 0.0010     energy-eigenvalue tresh-hold
   EBREAK =  0.23E-07  absolut break condition
   DEPER  =   0.30     relativ break condition  

   TIME   =   0.40     timestep for ELM

  volume/ion in A,a.u.               =   11564.00     78037.72
  Fermi-wavevector in a.u.,A,eV,Ry     =   0.131550  0.248593  0.235453  0.017305
  Thomas-Fermi vector in A             =   0.773390

 Write flags
   LWAVE  =      F    write WAVECAR
   LCHARG =      F    write CHGCAR
   LVTOT  =      F    write LOCPOT, total local potential
   LVHAR  =      F    write LOCPOT, Hartree potential only
   LELF   =      F    write electronic localiz. function (ELF)
   LORBIT =      0    0 simple, 1 ext, 2 COOP (PROOUT)


 Dipole corrections
   LMONO  =      F    monopole corrections only (constant potential shift)
   LDIPOL =      F    correct potential (dipole corrections)
   IDIPOL =      0    1-x, 2-y, 3-z, 4-all directions 
   EPSILON=  1.0000000 bulk dielectric constant

 Exchange correlation treatment:
   GGA     =    --    GGA type
   LEXCH   =     7    internal setting for exchange type
   VOSKOWN=      1    Vosko Wilk Nusair interpolation
   LHFCALC =     F    Hartree Fock is set to
   LHFONE  =     F    Hartree Fock one center treatment
   AEXX    =    0.0000 exact exchange contribution

 Linear response parameters
   LEPSILON=     F    determine dielectric tensor
   LRPA    =     F    only Hartree local field effects (RPA)
   LNABLA  =     F    use nabla operator in PAW spheres
   LVEL    =     F    velocity operator in full k-point grid
   LINTERFAST=   F  fast interpolation
   KINTER  =     0    interpolate to denser k-point grid
   CSHIFT  =0.1000    complex shift for real part using Kramers Kronig
   OMEGAMAX=  -1.0    maximum frequency
   DEG_THRESHOLD= 0.2000000E-02 threshold for treating states as degnerate
   RTIME   =    0.100 relaxation time in fs

 Orbital magnetization related:
   ORBITALMAG=     F  switch on orbital magnetization
   LCHIMAG   =     F  perturbation theory with respect to B field
   DQ        =  0.001000  dq finite difference perturbation B field



--------------------------------------------------------------------------------------------------------


 quasi-Newton-method for relaxation of ions
 charge density and potential will be updated during run
 spin polarized calculation
 RMM-DIIS sequential band-by-band and
  variant of blocked Davidson during initial phase
 perform sub-space diagonalisation
    before iterative eigenvector-optimisation
 modified Broyden-mixing scheme, WC =      100.0
 initial mixing is a Kerker type mixing with AMIX =  0.4000 and BMIX =      1.0000
 Hartree-type preconditioning will be used
 using additional bands             5
 real space projection scheme for non local part
 calculate Harris-corrections to forces 
   (improved forces if not selfconsistent)
 use gradient corrections 
 use of overlap-Matrix (Vanderbilt PP)
 Methfessel and Paxton  Order N= 1 SIGMA  =   0.01


--------------------------------------------------------------------------------------------------------


  energy-cutoff  :      400.00
  volume of cell :    23128.00
      direct lattice vectors                 reciprocal lattice vectors
    28.000000000  0.000000000  0.000000000     0.035714286  0.000000000  0.000000000
     0.000000000 28.000000000  0.000000000     0.000000000  0.035714286  0.000000000
     0.000000000  0.000000000 29.500000000     0.000000000  0.000000000  0.033898305

  length of vectors
    28.000000000 28.000000000 29.500000000     0.035714286  0.035714286  0.033898305



 k-points in units of 2pi/SCALE and weight: KPOINTS created by Atomic Simulation Env
   0.00000000  0.00000000  0.00000000       1.000

 k-points in reciprocal lattice and weights: KPOINTS created by Atomic Simulation Env
   0.00000000  0.00000000  0.00000000       1.000

 position of ions in fractional coordinates (direct lattice) 
   0.50000000  0.50000000  0.47457627
   0.50000000  0.50000000  0.52203390

 position of ions in cartesian coordinates  (Angst):
  14.00000000 14.00000000 14.00000000
  14.00000000 14.00000000 15.40000000



--------------------------------------------------------------------------------------------------------


 k-point  1 :   0.0000 0.0000 0.0000  plane waves:  420237

 maximum and minimum number of plane-waves per node :     52536    52519

 maximum number of plane-waves:    420237
 maximum index in each direction: 
   IXMAX=   45   IYMAX=   45   IZMAX=   48
   IXMIN=  -45   IYMIN=  -45   IZMIN=  -48

 WARNING: aliasing errors must be expected set NGX to 182 to avoid them
 WARNING: aliasing errors must be expected set NGY to 182 to avoid them
 WARNING: aliasing errors must be expected set NGZ to 194 to avoid them
 aliasing errors are usually negligible using standard VASP settings
 and one can safely disregard these warnings

 real space projection operators:
  total allocation   :        138.81 KBytes
  max/ min on nodes  :         19.75         15.81


 parallel 3D FFT for wavefunctions:
    minimum data exchange during FFTs selected (reduces bandwidth)
 parallel 3D FFT for charge:
    minimum data exchange during FFTs selected (reduces bandwidth)


 total amount of memory used by VASP on root node   388404. kBytes
========================================================================

   base      :      30000. kBytes
   nonlr-proj:         59. kBytes
   fftplans  :     106425. kBytes
   grid      :     233421. kBytes
   one-center:          6. kBytes
   wavefun   :      18493. kBytes

 Broyden mixing: mesh for mixing (old mesh)
   NGX = 91   NGY = 91   NGZ = 97
  (NGX  =280   NGY  =280   NGZ  =288)
  gives a total of 803257 points

 initial charge density was supplied:
 charge density of overlapping atoms calculated
 number of electron      12.0000000 magnetization       2.0000000
 keeping initial charge density in first step


--------------------------------------------------------------------------------------------------------


 Maximum index for non-local projection operator           137
 Maximum index for augmentation-charges           216 (set IRDMAX)


--------------------------------------------------------------------------------------------------------


 First call to EWALD:  gamma=   0.062
 Maximum number of real-space cells 3x 3x 3
 Maximum number of reciprocal cells 3x 3x 3

 FEWALD executed in parallel
    FEWALD:  cpu time    0.00: real time    0.00


----------------------------------------- Iteration    1(   1)  ---------------------------------------


    POTLOK:  cpu time   47.45: real time   47.46
    SETDIJ:  cpu time    0.07: real time    0.07
     EDDAV:  cpu time   11.77: real time   11.77
       DOS:  cpu time    0.00: real time    0.00
    --------------------------------------------
      LOOP:  cpu time   59.29: real time   59.42

 eigenvalue-minimisations  :    76
 total energy-change (2. order) : 0.1155674E+03  (-0.1381836E+03)
 number of electron      12.0000000 magnetization       2.0000000
 augmentation part       12.0000000 magnetization       2.0000000

 Free energy of the ion-electron system (eV)
  ---------------------------------------------------
  alpha Z        PSCENC =         0.02383034
  Ewald energy   TEWEN  =       267.20600726
  -1/2 Hartree   DENC   =     -1002.96229299
  -exchange  EXHF       =         0.00000000
  -V(xc)+E(xc)   XCENC  =        54.06799590
  PAW double counting   =       492.37991565     -496.26382662
  entropy T*S    EENTRO =         0.00064803
  eigenvalues    EBANDS =       -64.70919206
  atomic energy  EATOM  =       865.82426828
  ---------------------------------------------------
  free energy    TOTEN  =       115.56735378 eV

  energy without entropy =      115.56670575  energy(sigma->0) =      115.56713777


--------------------------------------------------------------------------------------------------------




----------------------------------------- Iteration    1(   2)  ---------------------------------------


     EDDAV:  cpu time   12.68: real time   12.68
       DOS:  cpu time    0.00: real time    0.00
    --------------------------------------------
      LOOP:  cpu time   12.68: real time   12.71

 eigenvalue-minimisations  :    82
 total energy-change (2. order) :-0.7614614E+02  (-0.7604054E+02)
 number of electron      12.0000000 magnetization       2.0000000
 augmentation part       12.0000000 magnetization       2.0000000

 Free energy of the ion-electron system (eV)
  ---------------------------------------------------
  alpha Z        PSCENC =         0.02383034
  Ewald energy   TEWEN  =       267.20600726
  -1/2 Hartree   DENC   =     -1002.96229299
  -exchange  EXHF       =         0.00000000
  -V(xc)+E(xc)   XCENC  =        54.06799590
  PAW double counting   =       492.37991565     -496.26382662
  entropy T*S    EENTRO =         0.00000000
  eigenvalues    EBANDS =      -140.85468486
  atomic energy  EATOM  =       865.82426828
  ---------------------------------------------------
  free energy    TOTEN  =        39.42121295 eV

  energy without entropy =       39.42121295  energy(sigma->0) =       39.42121295


--------------------------------------------------------------------------------------------------------




----------------------------------------- Iteration    1(   3)  ---------------------------------------


     EDDAV:  cpu time    9.27: real time    9.27
       DOS:  cpu time    0.00: real time    0.00
    --------------------------------------------
      LOOP:  cpu time    9.27: real time    9.28

 eigenvalue-minimisations  :    56
 total energy-change (2. order) :-0.2982786E+02  (-0.2981616E+02)
 number of electron      12.0000000 magnetization       2.0000000
 augmentation part       12.0000000 magnetization       2.0000000

 Free energy of the ion-electron system (eV)
  ---------------------------------------------------
  alpha Z        PSCENC =         0.02383034
  Ewald energy   TEWEN  =       267.20600726
  -1/2 Hartree   DENC   =     -1002.96229299
  -exchange  EXHF       =         0.00000000
  -V(xc)+E(xc)   XCENC  =        54.06799590
  PAW double counting   =       492.37991565     -496.26382662
  entropy T*S    EENTRO =         0.00028990
  eigenvalues    EBANDS =      -170.68283962
  atomic energy  EATOM  =       865.82426828
  ---------------------------------------------------
  free energy    TOTEN  =         9.59334809 eV

  energy without entropy =        9.59305819  energy(sigma->0) =        9.59325146


--------------------------------------------------------------------------------------------------------




----------------------------------------- Iteration    1(   4)  ---------------------------------------


     EDDAV:  cpu time   13.20: real time   13.20
       DOS:  cpu time    0.00: real time    0.00
    --------------------------------------------
      LOOP:  cpu time   13.20: real time   13.21

 eigenvalue-minimisations  :    88
 total energy-change (2. order) :-0.1367413E+02  (-0.1361980E+02)
 number of electron      12.0000000 magnetization       2.0000000
 augmentation part       12.0000000 magnetization       2.0000000

 Free energy of the ion-electron system (eV)
  ---------------------------------------------------
  alpha Z        PSCENC =         0.02383034
  Ewald energy   TEWEN  =       267.20600726
  -1/2 Hartree   DENC   =     -1002.96229299
  -exchange  EXHF       =         0.00000000
  -V(xc)+E(xc)   XCENC  =        54.06799590
  PAW double counting   =       492.37991565     -496.26382662
  entropy T*S    EENTRO =         0.00000000
  eigenvalues    EBANDS =      -184.35668083
  atomic energy  EATOM  =       865.82426828
  ---------------------------------------------------
  free energy    TOTEN  =        -4.08078302 eV

  energy without entropy =       -4.08078302  energy(sigma->0) =       -4.08078302


--------------------------------------------------------------------------------------------------------




----------------------------------------- Iteration    1(   5)  ---------------------------------------


     EDDAV:  cpu time   10.75: real time   10.75
       DOS:  cpu time    0.00: real time    0.00
    --------------------------------------------
      LOOP:  cpu time   10.75: real time   10.76

 eigenvalue-minimisations  :    66
 total energy-change (2. order) :-0.4909331E+01  (-0.3427492E+01)
 number of electron      12.0000000 magnetization       2.0000000
 augmentation part       12.0000000 magnetization       2.0000000

 Free energy of the ion-electron system (eV)
  ---------------------------------------------------
  alpha Z        PSCENC =         0.02383034
  Ewald energy   TEWEN  =       267.20600726
  -1/2 Hartree   DENC   =     -1002.96229299
  -exchange  EXHF       =         0.00000000
  -V(xc)+E(xc)   XCENC  =        54.06799590
  PAW double counting   =       492.37991565     -496.26382662
  entropy T*S    EENTRO =         0.00000000
  eigenvalues    EBANDS =      -189.26601225
  atomic energy  EATOM  =       865.82426828
  ---------------------------------------------------
  free energy    TOTEN  =        -8.99011444 eV

  energy without entropy =       -8.99011444  energy(sigma->0) =       -8.99011444


--------------------------------------------------------------------------------------------------------




----------------------------------------- Iteration    1(   6)  ---------------------------------------


     EDDAV:  cpu time   10.61: real time   10.62
       DOS:  cpu time    0.00: real time    0.00
    --------------------------------------------
      LOOP:  cpu time   10.61: real time   10.64

 eigenvalue-minimisations  :    64
 total energy-change (2. order) :-0.9363473E-01  (-0.9418755E-01)
 number of electron      12.0000000 magnetization       2.0000000
 augmentation part       12.0000000 magnetization       2.0000000

 Free energy of the ion-electron system (eV)
  ---------------------------------------------------
  alpha Z        PSCENC =         0.02383034
  Ewald energy   TEWEN  =       267.20600726
  -1/2 Hartree   DENC   =     -1002.96229299
  -exchange  EXHF       =         0.00000000
  -V(xc)+E(xc)   XCENC  =        54.06799590
  PAW double counting   =       492.37991565     -496.26382662
  entropy T*S    EENTRO =         0.00058492
  eigenvalues    EBANDS =      -189.36023190
  atomic energy  EATOM  =       865.82426828
  ---------------------------------------------------
  free energy    TOTEN  =        -9.08374917 eV

  energy without entropy =       -9.08433409  energy(sigma->0) =       -9.08394415


--------------------------------------------------------------------------------------------------------




----------------------------------------- Iteration    1(   7)  ---------------------------------------


     EDDAV:  cpu time   13.34: real time   13.34
       DOS:  cpu time    0.00: real time    0.00
    --------------------------------------------
      LOOP:  cpu time   13.34: real time   13.35

 eigenvalue-minimisations  :    85
 total energy-change (2. order) :-0.1118615E-02  (-0.1113487E-02)
 number of electron      12.0000000 magnetization       2.0000000
 augmentation part       12.0000000 magnetization       2.0000000

 Free energy of the ion-electron system (eV)
  ---------------------------------------------------
  alpha Z        PSCENC =         0.02383034
  Ewald energy   TEWEN  =       267.20600726
  -1/2 Hartree   DENC   =     -1002.96229299
  -exchange  EXHF       =         0.00000000
  -V(xc)+E(xc)   XCENC  =        54.06799590
  PAW double counting   =       492.37991565     -496.26382662
  entropy T*S    EENTRO =         0.00057979
  eigenvalues    EBANDS =      -189.36134539
  atomic energy  EATOM  =       865.82426828
  ---------------------------------------------------
  free energy    TOTEN  =        -9.08486779 eV

  energy without entropy =       -9.08544758  energy(sigma->0) =       -9.08506105


--------------------------------------------------------------------------------------------------------




----------------------------------------- Iteration    1(   8)  ---------------------------------------


     EDDAV:  cpu time   12.21: real time   12.21
       DOS:  cpu time    0.00: real time    0.00
    --------------------------------------------
      LOOP:  cpu time   12.21: real time   12.23

 eigenvalue-minimisations  :    77
 total energy-change (2. order) :-0.1608711E-05  (-0.1609083E-05)
 number of electron      12.0000000 magnetization       2.0000000
 augmentation part       12.0000000 magnetization       2.0000000

 Free energy of the ion-electron system (eV)
  ---------------------------------------------------
  alpha Z        PSCENC =         0.02383034
  Ewald energy   TEWEN  =       267.20600726
  -1/2 Hartree   DENC   =     -1002.96229299
  -exchange  EXHF       =         0.00000000
  -V(xc)+E(xc)   XCENC  =        54.06799590
  PAW double counting   =       492.37991565     -496.26382662
  entropy T*S    EENTRO =         0.00057979
  eigenvalues    EBANDS =      -189.36134700
  atomic energy  EATOM  =       865.82426828
  ---------------------------------------------------
  free energy    TOTEN  =        -9.08486940 eV

  energy without entropy =       -9.08544919  energy(sigma->0) =       -9.08506266


--------------------------------------------------------------------------------------------------------




----------------------------------------- Iteration    1(   9)  ---------------------------------------


     EDDAV:  cpu time   13.38: real time   13.38
       DOS:  cpu time    0.00: real time    0.00
    --------------------------------------------
      LOOP:  cpu time   13.38: real time   13.40

 eigenvalue-minimisations  :    88
 total energy-change (2. order) :-0.1927310E-07  (-0.1864565E-07)
 number of electron      12.0000000 magnetization       2.0000000
 augmentation part       12.0000000 magnetization       2.0000000

 Free energy of the ion-electron system (eV)
  ---------------------------------------------------
  alpha Z        PSCENC =         0.02383034
  Ewald energy   TEWEN  =       267.20600726
  -1/2 Hartree   DENC   =     -1002.96229299
  -exchange  EXHF       =         0.00000000
  -V(xc)+E(xc)   XCENC  =        54.06799590
  PAW double counting   =       492.37991565     -496.26382662
  entropy T*S    EENTRO =         0.00057979
  eigenvalues    EBANDS =      -189.36134702
  atomic energy  EATOM  =       865.82426828
  ---------------------------------------------------
  free energy    TOTEN  =        -9.08486942 eV

  energy without entropy =       -9.08544921  energy(sigma->0) =       -9.08506268


--------------------------------------------------------------------------------------------------------




----------------------------------------- Iteration    1(  10)  ---------------------------------------


     EDDAV:  cpu time   12.42: real time   12.42
       DOS:  cpu time    0.00: real time    0.00
    CHARGE:  cpu time    3.08: real time    3.08
    MIXING:  cpu time    0.32: real time    0.32
    --------------------------------------------
      LOOP:  cpu time   15.81: real time   15.82

 eigenvalue-minimisations  :    80
 total energy-change (2. order) : 0.8938059E-09  (-0.2043521E-10)
 number of electron      12.0000125 magnetization       2.0000006
 augmentation part        1.0813196 magnetization       0.4820924

 Broyden mixing:
  rms(total) = 0.59225E+00    rms(broyden)= 0.58460E+00
  rms(prec ) = 0.58856E+00
  weight for this iteration     100.00

 Free energy of the ion-electron system (eV)
  ---------------------------------------------------
  alpha Z        PSCENC =         0.02383034
  Ewald energy   TEWEN  =       267.20600726
  -1/2 Hartree   DENC   =     -1002.96229299
  -exchange  EXHF       =         0.00000000
  -V(xc)+E(xc)   XCENC  =        54.06799590
  PAW double counting   =       492.37991565     -496.26382662
  entropy T*S    EENTRO =         0.00057979
  eigenvalues    EBANDS =      -189.36134701
  atomic energy  EATOM  =       865.82426828
  ---------------------------------------------------
  free energy    TOTEN  =        -9.08486941 eV

  energy without entropy =       -9.08544921  energy(sigma->0) =       -9.08506268


--------------------------------------------------------------------------------------------------------




----------------------------------------- Iteration    1(  11)  ---------------------------------------


    POTLOK:  cpu time   48.37: real time   48.38
    SETDIJ:  cpu time    0.07: real time    0.07
    EDDIAG:  cpu time    1.74: real time    1.74
  RMM-DIIS:  cpu time    5.09: real time    5.09
    ORTHCH:  cpu time    0.05: real time    0.05
       DOS:  cpu time    0.00: real time    0.00
    CHARGE:  cpu time    3.11: real time    3.11
    MIXING:  cpu time    0.33: real time    0.33
    --------------------------------------------
      LOOP:  cpu time   58.76: real time   58.78

 eigenvalue-minimisations  :    44
 total energy-change (2. order) : 0.1459722E+00  (-0.7356888E-01)
 number of electron      12.0000125 magnetization       2.0000010
 augmentation part        1.0775183 magnetization       0.4958662

 Broyden mixing:
  rms(total) = 0.27867E+00    rms(broyden)= 0.27762E+00
  rms(prec ) = 0.27968E+00
  weight for this iteration     100.00

 eigenvalues of (default mixing * dielectric matrix)
  average eigenvalue GAMMA=   0.7487
  0.7487

 Free energy of the ion-electron system (eV)
  ---------------------------------------------------
  alpha Z        PSCENC =         0.02383034
  Ewald energy   TEWEN  =       267.20600726
  -1/2 Hartree   DENC   =     -1003.33063005
  -exchange  EXHF       =         0.00000000
  -V(xc)+E(xc)   XCENC  =        54.54288304
  PAW double counting   =       508.26703192     -511.99142146
  entropy T*S    EENTRO =         0.00057979
  eigenvalues    EBANDS =      -189.48144637
  atomic energy  EATOM  =       865.82426828
  ---------------------------------------------------
  free energy    TOTEN  =        -8.93889726 eV

  energy without entropy =       -8.93947705  energy(sigma->0) =       -8.93909053


--------------------------------------------------------------------------------------------------------




----------------------------------------- Iteration    1(  12)  ---------------------------------------


    POTLOK:  cpu time   48.02: real time   48.03
    SETDIJ:  cpu time    0.07: real time    0.07
    EDDIAG:  cpu time    1.73: real time    1.73
  RMM-DIIS:  cpu time    5.35: real time    5.35
    ORTHCH:  cpu time    0.05: real time    0.05
       DOS:  cpu time    0.00: real time    0.00
    CHARGE:  cpu time    3.19: real time    3.19
    MIXING:  cpu time    0.36: real time    0.36
    --------------------------------------------
      LOOP:  cpu time   58.78: real time   58.82

 eigenvalue-minimisations  :    44
 total energy-change (2. order) :-0.2101632E+00  (-0.7680049E-02)
 number of electron      12.0000124 magnetization       2.0000020
 augmentation part        1.0733594 magnetization       0.4939610

 Broyden mixing:
  rms(total) = 0.14030E+00    rms(broyden)= 0.14025E+00
  rms(prec ) = 0.14164E+00
  weight for this iteration     100.00

 eigenvalues of (default mixing * dielectric matrix)
  average eigenvalue GAMMA=   1.2610
  0.7016  1.8205

 Free energy of the ion-electron system (eV)
  ---------------------------------------------------
  alpha Z        PSCENC =         0.02383034
  Ewald energy   TEWEN  =       267.20600726
  -1/2 Hartree   DENC   =     -1003.84927955
  -exchange  EXHF       =         0.00000000
  -V(xc)+E(xc)   XCENC  =        54.36517724
  PAW double counting   =       516.65164663     -520.40345665
  entropy T*S    EENTRO =         0.00000000
  eigenvalues    EBANDS =      -188.96725398
  atomic energy  EATOM  =       865.82426828
  ---------------------------------------------------
  free energy    TOTEN  =        -9.14906044 eV

  energy without entropy =       -9.14906044  energy(sigma->0) =       -9.14906044


--------------------------------------------------------------------------------------------------------




----------------------------------------- Iteration    1(  13)  ---------------------------------------


    POTLOK:  cpu time   48.21: real time   48.22
    SETDIJ:  cpu time    0.06: real time    0.06
    EDDIAG:  cpu time    1.68: real time    1.68
  RMM-DIIS:  cpu time    5.14: real time    5.14
    ORTHCH:  cpu time    0.05: real time    0.05
       DOS:  cpu time    0.00: real time    0.00
    CHARGE:  cpu time    3.21: real time    3.21
    MIXING:  cpu time    0.38: real time    0.38
    --------------------------------------------
      LOOP:  cpu time   58.72: real time   58.74

 eigenvalue-minimisations  :    44
 total energy-change (2. order) : 0.2417078E-02  (-0.3731311E-02)
 number of electron      12.0000124 magnetization       2.0000025
 augmentation part        1.0697133 magnetization       0.4941827

 Broyden mixing:
  rms(total) = 0.29768E-01    rms(broyden)= 0.29717E-01
  rms(prec ) = 0.30053E-01
  weight for this iteration     100.00

 eigenvalues of (default mixing * dielectric matrix)
  average eigenvalue GAMMA=   1.2282
  2.1862  0.8229  0.6756

 Free energy of the ion-electron system (eV)
  ---------------------------------------------------
  alpha Z        PSCENC =         0.02383034
  Ewald energy   TEWEN  =       267.20600726
  -1/2 Hartree   DENC   =     -1004.74666651
  -exchange  EXHF       =         0.00000000
  -V(xc)+E(xc)   XCENC  =        54.46121700
  PAW double counting   =       529.20406142     -532.86771454
  entropy T*S    EENTRO =         0.00000000
  eigenvalues    EBANDS =      -188.25164661
  atomic energy  EATOM  =       865.82426828
  ---------------------------------------------------
  free energy    TOTEN  =        -9.14664336 eV

  energy without entropy =       -9.14664336  energy(sigma->0) =       -9.14664336


--------------------------------------------------------------------------------------------------------




----------------------------------------- Iteration    1(  14)  ---------------------------------------


    POTLOK:  cpu time   48.33: real time   48.34
    SETDIJ:  cpu time    0.06: real time    0.06
    EDDIAG:  cpu time    1.69: real time    1.69
  RMM-DIIS:  cpu time    5.31: real time    5.31
    ORTHCH:  cpu time    0.05: real time    0.05
       DOS:  cpu time    0.00: real time    0.00
    CHARGE:  cpu time    3.06: real time    3.06
    MIXING:  cpu time    0.41: real time    0.41
    --------------------------------------------
      LOOP:  cpu time   58.92: real time   58.93

 eigenvalue-minimisations  :    44
 total energy-change (2. order) :-0.5439332E-02  (-0.2866855E-03)
 number of electron      12.0000124 magnetization       2.0000033
 augmentation part        1.0693056 magnetization       0.4938951

 Broyden mixing:
  rms(total) = 0.13489E-01    rms(broyden)= 0.13484E-01
  rms(prec ) = 0.13773E-01
  weight for this iteration     100.00

 eigenvalues of (default mixing * dielectric matrix)
  average eigenvalue GAMMA=   1.3165
  2.3364  0.6672  0.7537  1.5085

 Free energy of the ion-electron system (eV)
  ---------------------------------------------------
  alpha Z        PSCENC =         0.02383034
  Ewald energy   TEWEN  =       267.20600726
  -1/2 Hartree   DENC   =     -1004.97887475
  -exchange  EXHF       =         0.00000000
  -V(xc)+E(xc)   XCENC  =        54.46699114
  PAW double counting   =       530.91923477     -534.57742194
  entropy T*S    EENTRO =         0.00057979
  eigenvalues    EBANDS =      -188.03669758
  atomic energy  EATOM  =       865.82426828
  ---------------------------------------------------
  free energy    TOTEN  =        -9.15208269 eV

  energy without entropy =       -9.15266248  energy(sigma->0) =       -9.15227596


--------------------------------------------------------------------------------------------------------




----------------------------------------- Iteration    1(  15)  ---------------------------------------


    POTLOK:  cpu time   48.08: real time   48.09
    SETDIJ:  cpu time    0.07: real time    0.07
    EDDIAG:  cpu time    1.74: real time    1.74
  RMM-DIIS:  cpu time    5.27: real time    5.27
    ORTHCH:  cpu time    0.05: real time    0.05
       DOS:  cpu time    0.00: real time    0.00
    CHARGE:  cpu time    3.07: real time    3.07
    MIXING:  cpu time    0.44: real time    0.44
    --------------------------------------------
      LOOP:  cpu time   58.72: real time   58.73

 eigenvalue-minimisations  :    44
 total energy-change (2. order) :-0.9353874E-03  (-0.1222846E-03)
 number of electron      12.0000124 magnetization       2.0000036
 augmentation part        1.0697569 magnetization       0.4938968

 Broyden mixing:
  rms(total) = 0.29426E-02    rms(broyden)= 0.29415E-02
  rms(prec ) = 0.30309E-02
  weight for this iteration     100.00

 eigenvalues of (default mixing * dielectric matrix)
  average eigenvalue GAMMA=   1.2857
  2.4557  1.7523  0.8720  0.6625  0.6858

 Free energy of the ion-electron system (eV)
  ---------------------------------------------------
  alpha Z        PSCENC =         0.02383034
  Ewald energy   TEWEN  =       267.20600726
  -1/2 Hartree   DENC   =     -1005.16385487
  -exchange  EXHF       =         0.00000000
  -V(xc)+E(xc)   XCENC  =        54.46564086
  PAW double counting   =       531.67998338     -535.31545290
  entropy T*S    EENTRO =         0.00000000
  eigenvalues    EBANDS =      -187.87344042
  atomic energy  EATOM  =       865.82426828
  ---------------------------------------------------
  free energy    TOTEN  =        -9.15301808 eV

  energy without entropy =       -9.15301808  energy(sigma->0) =       -9.15301808


--------------------------------------------------------------------------------------------------------




----------------------------------------- Iteration    1(  16)  ---------------------------------------


    POTLOK:  cpu time   47.89: real time   47.90
    SETDIJ:  cpu time    0.07: real time    0.07
    EDDIAG:  cpu time    1.75: real time    1.75
  RMM-DIIS:  cpu time    5.37: real time    5.38
    ORTHCH:  cpu time    0.05: real time    0.05
       DOS:  cpu time    0.00: real time    0.00
    CHARGE:  cpu time    3.09: real time    3.09
    MIXING:  cpu time    0.47: real time    0.47
    --------------------------------------------
      LOOP:  cpu time   58.70: real time   58.72

 eigenvalue-minimisations  :    44
 total energy-change (2. order) :-0.1661772E-03  (-0.1549235E-04)
 number of electron      12.0000124 magnetization       2.0000040
 augmentation part        1.0697590 magnetization       0.4937546

 Broyden mixing:
  rms(total) = 0.11503E-02    rms(broyden)= 0.11492E-02
  rms(prec ) = 0.12841E-02
  weight for this iteration     100.00

 eigenvalues of (default mixing * dielectric matrix)
  average eigenvalue GAMMA=   1.2174
  2.4766  1.7523  0.9904  0.6435  0.6775  0.7645

 Free energy of the ion-electron system (eV)
  ---------------------------------------------------
  alpha Z        PSCENC =         0.02383034
  Ewald energy   TEWEN  =       267.20600726
  -1/2 Hartree   DENC   =     -1005.20712571
  -exchange  EXHF       =         0.00000000
  -V(xc)+E(xc)   XCENC  =        54.46654341
  PAW double counting   =       531.70932644     -535.34576806
  entropy T*S    EENTRO =         0.00000000
  eigenvalues    EBANDS =      -187.83026621
  atomic energy  EATOM  =       865.82426828
  ---------------------------------------------------
  free energy    TOTEN  =        -9.15318426 eV

  energy without entropy =       -9.15318426  energy(sigma->0) =       -9.15318426


--------------------------------------------------------------------------------------------------------




----------------------------------------- Iteration    1(  17)  ---------------------------------------


    POTLOK:  cpu time   47.75: real time   47.76
    SETDIJ:  cpu time    0.06: real time    0.06
    EDDIAG:  cpu time    1.68: real time    1.68
  RMM-DIIS:  cpu time    5.04: real time    5.04
    ORTHCH:  cpu time    0.05: real time    0.05
       DOS:  cpu time    0.00: real time    0.00
    CHARGE:  cpu time    3.13: real time    3.13
    MIXING:  cpu time    0.50: real time    0.50
    --------------------------------------------
      LOOP:  cpu time   58.22: real time   58.23

 eigenvalue-minimisations  :    43
 total energy-change (2. order) : 0.4979112E-03  (-0.1928835E-05)
 number of electron      12.0000124 magnetization       2.0000047
 augmentation part        1.0697458 magnetization       0.4937494

 Broyden mixing:
  rms(total) = 0.68784E-03    rms(broyden)= 0.68773E-03
  rms(prec ) = 0.83206E-03
  weight for this iteration     100.00

 eigenvalues of (default mixing * dielectric matrix)
  average eigenvalue GAMMA=   1.3352
  2.4655  1.9527  1.9527  0.6391  0.6766  0.7290  0.9304

 Free energy of the ion-electron system (eV)
  ---------------------------------------------------
  alpha Z        PSCENC =         0.02383034
  Ewald energy   TEWEN  =       267.20600726
  -1/2 Hartree   DENC   =     -1005.23659320
  -exchange  EXHF       =         0.00000000
  -V(xc)+E(xc)   XCENC  =        54.46707118
  PAW double counting   =       531.67554440     -535.31121738
  entropy T*S    EENTRO =         0.00057979
  eigenvalues    EBANDS =      -187.80217701
  atomic energy  EATOM  =       865.82426828
  ---------------------------------------------------
  free energy    TOTEN  =        -9.15268635 eV

  energy without entropy =       -9.15326614  energy(sigma->0) =       -9.15287961


--------------------------------------------------------------------------------------------------------




----------------------------------------- Iteration    1(  18)  ---------------------------------------


    POTLOK:  cpu time   47.96: real time   47.97
    SETDIJ:  cpu time    0.06: real time    0.06
    EDDIAG:  cpu time    1.71: real time    1.71
  RMM-DIIS:  cpu time    5.06: real time    5.06
    ORTHCH:  cpu time    0.05: real time    0.05
       DOS:  cpu time    0.00: real time    0.00
    CHARGE:  cpu time    3.23: real time    3.23
    MIXING:  cpu time    0.50: real time    0.50
    --------------------------------------------
      LOOP:  cpu time   58.57: real time   58.63

 eigenvalue-minimisations  :    42
 total energy-change (2. order) :-0.1382317E-03  (-0.2336226E-05)
 number of electron      12.0000124 magnetization       2.0000051
 augmentation part        1.0697357 magnetization       0.4937382

 Broyden mixing:
  rms(total) = 0.29733E-03    rms(broyden)= 0.29731E-03
  rms(prec ) = 0.41853E-03
  weight for this iteration     100.00

 eigenvalues of (default mixing * dielectric matrix)
  average eigenvalue GAMMA=   1.3346
  2.6531  2.5180  1.7791  0.9459  0.7714  0.7173  0.6322  0.6594

 Free energy of the ion-electron system (eV)
  ---------------------------------------------------
  alpha Z        PSCENC =         0.02383034
  Ewald energy   TEWEN  =       267.20600726
  -1/2 Hartree   DENC   =     -1005.29691864
  -exchange  EXHF       =         0.00000000
  -V(xc)+E(xc)   XCENC  =        54.46797934
  PAW double counting   =       531.60894479     -535.24435499
  entropy T*S    EENTRO =         0.00057979
  eigenvalues    EBANDS =      -187.74316074
  atomic energy  EATOM  =       865.82426828
  ---------------------------------------------------
  free energy    TOTEN  =        -9.15282458 eV

  energy without entropy =       -9.15340437  energy(sigma->0) =       -9.15301784


--------------------------------------------------------------------------------------------------------




----------------------------------------- Iteration    1(  19)  ---------------------------------------


    POTLOK:  cpu time   47.83: real time   47.84
    SETDIJ:  cpu time    0.07: real time    0.07
    EDDIAG:  cpu time    1.74: real time    1.74
  RMM-DIIS:  cpu time    4.76: real time    4.76
    ORTHCH:  cpu time    0.05: real time    0.05
       DOS:  cpu time    0.00: real time    0.00
    CHARGE:  cpu time    3.11: real time    3.11
    MIXING:  cpu time    0.56: real time    0.56
    --------------------------------------------
      LOOP:  cpu time   58.11: real time   58.16

 eigenvalue-minimisations  :    38
 total energy-change (2. order) :-0.5531507E-04  (-0.5911291E-06)
 number of electron      12.0000124 magnetization       2.0000059
 augmentation part        1.0697419 magnetization       0.4937390

 Broyden mixing:
  rms(total) = 0.18981E-03    rms(broyden)= 0.18978E-03
  rms(prec ) = 0.30060E-03
  weight for this iteration     100.00

 eigenvalues of (default mixing * dielectric matrix)
  average eigenvalue GAMMA=   1.3579
  2.9487  2.4918  1.5478  1.5478  0.9507  0.7529  0.7006  0.6520  0.6285

 Free energy of the ion-electron system (eV)
  ---------------------------------------------------
  alpha Z        PSCENC =         0.02383034
  Ewald energy   TEWEN  =       267.20600726
  -1/2 Hartree   DENC   =     -1005.32230443
  -exchange  EXHF       =         0.00000000
  -V(xc)+E(xc)   XCENC  =        54.46835231
  PAW double counting   =       531.59715173     -535.23233044
  entropy T*S    EENTRO =         0.00057979
  eigenvalues    EBANDS =      -187.71843473
  atomic energy  EATOM  =       865.82426828
  ---------------------------------------------------
  free energy    TOTEN  =        -9.15287989 eV

  energy without entropy =       -9.15345968  energy(sigma->0) =       -9.15307316


--------------------------------------------------------------------------------------------------------




----------------------------------------- Iteration    1(  20)  ---------------------------------------


    POTLOK:  cpu time   47.80: real time   47.81
    SETDIJ:  cpu time    0.06: real time    0.06
    EDDIAG:  cpu time    1.72: real time    1.72
  RMM-DIIS:  cpu time    4.82: real time    4.82
    ORTHCH:  cpu time    0.05: real time    0.05
       DOS:  cpu time    0.00: real time    0.00
    CHARGE:  cpu time    3.12: real time    3.12
    MIXING:  cpu time    0.61: real time    0.61
    --------------------------------------------
      LOOP:  cpu time   58.19: real time   58.21

 eigenvalue-minimisations  :    40
 total energy-change (2. order) :-0.6560399E-03  (-0.7715377E-06)
 number of electron      12.0000124 magnetization       2.0000064
 augmentation part        1.0697366 magnetization       0.4937318

 Broyden mixing:
  rms(total) = 0.15364E-03    rms(broyden)= 0.15358E-03
  rms(prec ) = 0.20409E-03
  weight for this iteration     100.00

 eigenvalues of (default mixing * dielectric matrix)
  average eigenvalue GAMMA=   1.4471
  3.6409  2.4838  1.9369  1.8775  0.9122  0.9122  0.7489  0.6865  0.6268  0.6456

 Free energy of the ion-electron system (eV)
  ---------------------------------------------------
  alpha Z        PSCENC =         0.02383034
  Ewald energy   TEWEN  =       267.20600726
  -1/2 Hartree   DENC   =     -1005.36801522
  -exchange  EXHF       =         0.00000000
  -V(xc)+E(xc)   XCENC  =        54.46919941
  PAW double counting   =       531.59347973     -535.22864464
  entropy T*S    EENTRO =         0.00000000
  eigenvalues    EBANDS =      -187.67366108
  atomic energy  EATOM  =       865.82426828
  ---------------------------------------------------
  free energy    TOTEN  =        -9.15353593 eV

  energy without entropy =       -9.15353593  energy(sigma->0) =       -9.15353593


--------------------------------------------------------------------------------------------------------




----------------------------------------- Iteration    1(  21)  ---------------------------------------


    POTLOK:  cpu time   47.72: real time   47.73
    SETDIJ:  cpu time    0.06: real time    0.06
    EDDIAG:  cpu time    1.66: real time    1.66
  RMM-DIIS:  cpu time    4.89: real time    4.89
    ORTHCH:  cpu time    0.05: real time    0.05
       DOS:  cpu time    0.00: real time    0.00
    CHARGE:  cpu time    3.13: real time    3.13
    MIXING:  cpu time    0.66: real time    0.66
    --------------------------------------------
      LOOP:  cpu time   58.17: real time   58.21

 eigenvalue-minimisations  :    40
 total energy-change (2. order) :-0.3564971E-04  (-0.4024830E-06)
 number of electron      12.0000124 magnetization       2.0000068
 augmentation part        1.0697224 magnetization       0.4937316

 Broyden mixing:
  rms(total) = 0.77155E-04    rms(broyden)= 0.77097E-04
  rms(prec ) = 0.11402E-03
  weight for this iteration     100.00

 eigenvalues of (default mixing * dielectric matrix)
  average eigenvalue GAMMA=   1.5467
  4.5770  2.5211  2.3396  1.5852  1.5852  0.9239  0.7947  0.7429  0.6321  0.6341
  0.6776

 Free energy of the ion-electron system (eV)
  ---------------------------------------------------
  alpha Z        PSCENC =         0.02383034
  Ewald energy   TEWEN  =       267.20600726
  -1/2 Hartree   DENC   =     -1005.38907943
  -exchange  EXHF       =         0.00000000
  -V(xc)+E(xc)   XCENC  =        54.46958360
  PAW double counting   =       531.59239050     -535.22766251
  entropy T*S    EENTRO =         0.00000000
  eigenvalues    EBANDS =      -187.65290962
  atomic energy  EATOM  =       865.82426828
  ---------------------------------------------------
  free energy    TOTEN  =        -9.15357158 eV

  energy without entropy =       -9.15357158  energy(sigma->0) =       -9.15357158


--------------------------------------------------------------------------------------------------------




----------------------------------------- Iteration    1(  22)  ---------------------------------------


    POTLOK:  cpu time   47.86: real time   47.87
    SETDIJ:  cpu time    0.07: real time    0.07
    EDDIAG:  cpu time    1.72: real time    1.72
  RMM-DIIS:  cpu time    4.72: real time    4.72
    ORTHCH:  cpu time    0.05: real time    0.05
       DOS:  cpu time    0.00: real time    0.00
    CHARGE:  cpu time    3.24: real time    3.24
    MIXING:  cpu time    0.75: real time    0.75
    --------------------------------------------
      LOOP:  cpu time   58.41: real time   58.43

 eigenvalue-minimisations  :    38
 total energy-change (2. order) :-0.1910047E-04  (-0.2447557E-06)
 number of electron      12.0000124 magnetization       2.0000071
 augmentation part        1.0697188 magnetization       0.4937334

 Broyden mixing:
  rms(total) = 0.70223E-04    rms(broyden)= 0.70194E-04
  rms(prec ) = 0.89462E-04
  weight for this iteration     100.00

 eigenvalues of (default mixing * dielectric matrix)
  average eigenvalue GAMMA=   1.6279
  5.4501  2.7095  2.4124  1.8293  1.8293  0.9434  0.9434  0.7774  0.6239  0.6360
  0.6785  0.7020

 Free energy of the ion-electron system (eV)
  ---------------------------------------------------
  alpha Z        PSCENC =         0.02383034
  Ewald energy   TEWEN  =       267.20600726
  -1/2 Hartree   DENC   =     -1005.39657080
  -exchange  EXHF       =         0.00000000
  -V(xc)+E(xc)   XCENC  =        54.46960210
  PAW double counting   =       531.58873197     -535.22402476
  entropy T*S    EENTRO =         0.00000000
  eigenvalues    EBANDS =      -187.64543507
  atomic energy  EATOM  =       865.82426828
  ---------------------------------------------------
  free energy    TOTEN  =        -9.15359068 eV

  energy without entropy =       -9.15359068  energy(sigma->0) =       -9.15359068


--------------------------------------------------------------------------------------------------------




----------------------------------------- Iteration    1(  23)  ---------------------------------------


    POTLOK:  cpu time   47.35: real time   47.36
    SETDIJ:  cpu time    0.05: real time    0.06
    EDDIAG:  cpu time    1.65: real time    1.65
  RMM-DIIS:  cpu time    4.12: real time    4.12
    ORTHCH:  cpu time    0.05: real time    0.05
       DOS:  cpu time    0.00: real time    0.00
    CHARGE:  cpu time    3.18: real time    3.18
    MIXING:  cpu time    0.79: real time    0.79
    --------------------------------------------
      LOOP:  cpu time   57.18: real time   57.20

 eigenvalue-minimisations  :    32
 total energy-change (2. order) : 0.5682893E-03  (-0.1113340E-06)
 number of electron      12.0000124 magnetization       2.0000074
 augmentation part        1.0697217 magnetization       0.4937359

 Broyden mixing:
  rms(total) = 0.32744E-04    rms(broyden)= 0.32725E-04
  rms(prec ) = 0.49667E-04
  weight for this iteration     100.00

 eigenvalues of (default mixing * dielectric matrix)
  average eigenvalue GAMMA=   1.6146
  5.7291  2.7946  2.4175  2.0492  1.6456  1.1623  0.9522  0.8737  0.7482  0.6229
  0.6328  0.6934  0.6690

 Free energy of the ion-electron system (eV)
  ---------------------------------------------------
  alpha Z        PSCENC =         0.02383034
  Ewald energy   TEWEN  =       267.20600726
  -1/2 Hartree   DENC   =     -1005.39966427
  -exchange  EXHF       =         0.00000000
  -V(xc)+E(xc)   XCENC  =        54.46953519
  PAW double counting   =       531.58664548     -535.22188880
  entropy T*S    EENTRO =         0.00057979
  eigenvalues    EBANDS =      -187.64233566
  atomic energy  EATOM  =       865.82426828
  ---------------------------------------------------
  free energy    TOTEN  =        -9.15302239 eV

  energy without entropy =       -9.15360219  energy(sigma->0) =       -9.15321566


--------------------------------------------------------------------------------------------------------




----------------------------------------- Iteration    1(  24)  ---------------------------------------


    POTLOK:  cpu time   47.47: real time   47.48
    SETDIJ:  cpu time    0.06: real time    0.06
    EDDIAG:  cpu time    1.66: real time    1.66
  RMM-DIIS:  cpu time    4.31: real time    4.31
    ORTHCH:  cpu time    0.05: real time    0.05
       DOS:  cpu time    0.00: real time    0.00
    CHARGE:  cpu time    3.06: real time    3.06
    MIXING:  cpu time    0.87: real time    0.87
    --------------------------------------------
      LOOP:  cpu time   57.48: real time   57.50

 eigenvalue-minimisations  :    34
 total energy-change (2. order) :-0.1177822E-04  (-0.1346335E-06)
 number of electron      12.0000124 magnetization       2.0000077
 augmentation part        1.0697211 magnetization       0.4937378

 Broyden mixing:
  rms(total) = 0.33286E-04    rms(broyden)= 0.33277E-04
  rms(prec ) = 0.41385E-04
  weight for this iteration     100.00

 eigenvalues of (default mixing * dielectric matrix)
  average eigenvalue GAMMA=   1.7954
  6.6437  3.7994  2.6125  2.4516  1.8011  1.8011  0.9554  0.9554  0.8019  0.7183
  0.6953  0.6178  0.6266  0.6551

 Free energy of the ion-electron system (eV)
  ---------------------------------------------------
  alpha Z        PSCENC =         0.02383034
  Ewald energy   TEWEN  =       267.20600726
  -1/2 Hartree   DENC   =     -1005.40133716
  -exchange  EXHF       =         0.00000000
  -V(xc)+E(xc)   XCENC  =        54.46949697
  PAW double counting   =       531.58651844     -535.22174058
  entropy T*S    EENTRO =         0.00057979
  eigenvalues    EBANDS =      -187.64065750
  atomic energy  EATOM  =       865.82426828
  ---------------------------------------------------
  free energy    TOTEN  =        -9.15303417 eV

  energy without entropy =       -9.15361396  energy(sigma->0) =       -9.15322744


--------------------------------------------------------------------------------------------------------




----------------------------------------- Iteration    1(  25)  ---------------------------------------


    POTLOK:  cpu time   47.14: real time   47.15
    SETDIJ:  cpu time    0.07: real time    0.07
    EDDIAG:  cpu time    1.73: real time    1.73
  RMM-DIIS:  cpu time    4.08: real time    4.08
    ORTHCH:  cpu time    0.05: real time    0.05
       DOS:  cpu time    0.00: real time    0.00
    CHARGE:  cpu time    3.07: real time    3.07
    MIXING:  cpu time    0.87: real time    0.87
    --------------------------------------------
      LOOP:  cpu time   57.00: real time   57.02

 eigenvalue-minimisations  :    32
 total energy-change (2. order) :-0.7450076E-05  (-0.1211874E-06)
 number of electron      12.0000124 magnetization       2.0000078
 augmentation part        1.0697186 magnetization       0.4937381

 Broyden mixing:
  rms(total) = 0.14833E-04    rms(broyden)= 0.14817E-04
  rms(prec ) = 0.18352E-04
  weight for this iteration     100.00

 eigenvalues of (default mixing * dielectric matrix)
  average eigenvalue GAMMA=   1.8244
  7.4425  4.4299  2.6328  2.4408  1.7819  1.7819  0.9804  0.9804  0.8655  0.7299
  0.7299  0.6829  0.6501  0.6285  0.6090

 Free energy of the ion-electron system (eV)
  ---------------------------------------------------
  alpha Z        PSCENC =         0.02383034
  Ewald energy   TEWEN  =       267.20600726
  -1/2 Hartree   DENC   =     -1005.40166626
  -exchange  EXHF       =         0.00000000
  -V(xc)+E(xc)   XCENC  =        54.46943458
  PAW double counting   =       531.58624647     -535.22147863
  entropy T*S    EENTRO =         0.00057979
  eigenvalues    EBANDS =      -187.64026345
  atomic energy  EATOM  =       865.82426828
  ---------------------------------------------------
  free energy    TOTEN  =        -9.15304162 eV

  energy without entropy =       -9.15362141  energy(sigma->0) =       -9.15323489


--------------------------------------------------------------------------------------------------------




----------------------------------------- Iteration    1(  26)  ---------------------------------------


    POTLOK:  cpu time   47.18: real time   47.19
    SETDIJ:  cpu time    0.07: real time    0.07
    EDDIAG:  cpu time    1.74: real time    1.74
  RMM-DIIS:  cpu time    3.89: real time    3.89
    ORTHCH:  cpu time    0.05: real time    0.05
       DOS:  cpu time    0.00: real time    0.00
    CHARGE:  cpu time    3.26: real time    3.26
    MIXING:  cpu time    0.97: real time    0.97
    --------------------------------------------
      LOOP:  cpu time   57.15: real time   57.17

 eigenvalue-minimisations  :    30
 total energy-change (2. order) :-0.2032965E-05  (-0.4083403E-07)
 number of electron      12.0000124 magnetization       2.0000080
 augmentation part        1.0697168 magnetization       0.4937381

 Broyden mixing:
  rms(total) = 0.74063E-05    rms(broyden)= 0.73995E-05
  rms(prec ) = 0.11157E-04
  weight for this iteration     100.00

 eigenvalues of (default mixing * dielectric matrix)
  average eigenvalue GAMMA=   1.8150
  7.6810  4.6727  2.6209  2.4562  1.8566  1.4952  1.4952  0.9823  0.9823  0.8077
  0.7336  0.7075  0.6055  0.6234  0.6425  0.6770

 Free energy of the ion-electron system (eV)
  ---------------------------------------------------
  alpha Z        PSCENC =         0.02383034
  Ewald energy   TEWEN  =       267.20600726
  -1/2 Hartree   DENC   =     -1005.40153693
  -exchange  EXHF       =         0.00000000
  -V(xc)+E(xc)   XCENC  =        54.46941675
  PAW double counting   =       531.58610532     -535.22133920
  entropy T*S    EENTRO =         0.00057979
  eigenvalues    EBANDS =      -187.64037525
  atomic energy  EATOM  =       865.82426828
  ---------------------------------------------------
  free energy    TOTEN  =        -9.15304366 eV

  energy without entropy =       -9.15362345  energy(sigma->0) =       -9.15323692


--------------------------------------------------------------------------------------------------------




----------------------------------------- Iteration    1(  27)  ---------------------------------------


    POTLOK:  cpu time   47.03: real time   47.04
    SETDIJ:  cpu time    0.06: real time    0.06
    EDDIAG:  cpu time    1.69: real time    1.69
  RMM-DIIS:  cpu time    3.78: real time    3.78
    ORTHCH:  cpu time    0.05: real time    0.05
       DOS:  cpu time    0.00: real time    0.00
    CHARGE:  cpu time    3.03: real time    3.03
    MIXING:  cpu time    1.01: real time    1.01
    --------------------------------------------
      LOOP:  cpu time   56.64: real time   56.66

 eigenvalue-minimisations  :    30
 total energy-change (2. order) :-0.2483567E-05  (-0.4059055E-07)
 number of electron      12.0000124 magnetization       2.0000081
 augmentation part        1.0697153 magnetization       0.4937378

 Broyden mixing:
  rms(total) = 0.71806E-05    rms(broyden)= 0.71752E-05
  rms(prec ) = 0.86237E-05
  weight for this iteration     100.00

 eigenvalues of (default mixing * dielectric matrix)
  average eigenvalue GAMMA=   1.8977
  8.2064  5.2114  2.8448  2.5821  2.2569  1.8740  1.7467  1.0125  1.0125  0.8675
  0.7367  0.7367  0.6928  0.6571  0.6332  0.6111  0.5785

 Free energy of the ion-electron system (eV)
  ---------------------------------------------------
  alpha Z        PSCENC =         0.02383034
  Ewald energy   TEWEN  =       267.20600726
  -1/2 Hartree   DENC   =     -1005.40124464
  -exchange  EXHF       =         0.00000000
  -V(xc)+E(xc)   XCENC  =        54.46938041
  PAW double counting   =       531.58561962     -535.22084455
  entropy T*S    EENTRO =         0.00057979
  eigenvalues    EBANDS =      -187.64064264
  atomic energy  EATOM  =       865.82426828
  ---------------------------------------------------
  free energy    TOTEN  =        -9.15304614 eV

  energy without entropy =       -9.15362593  energy(sigma->0) =       -9.15323940


--------------------------------------------------------------------------------------------------------




----------------------------------------- Iteration    1(  28)  ---------------------------------------


    POTLOK:  cpu time   46.99: real time   47.00
    SETDIJ:  cpu time    0.07: real time    0.07
    EDDIAG:  cpu time    1.71: real time    1.72
  RMM-DIIS:  cpu time    3.89: real time    3.89
    ORTHCH:  cpu time    0.05: real time    0.05
       DOS:  cpu time    0.00: real time    0.00
    CHARGE:  cpu time    3.16: real time    3.16
    MIXING:  cpu time    1.11: real time    1.11
    --------------------------------------------
      LOOP:  cpu time   56.98: real time   56.99

 eigenvalue-minimisations  :    30
 total energy-change (2. order) :-0.5814795E-03  (-0.2091996E-07)
 number of electron      12.0000124 magnetization       2.0000082
 augmentation part        1.0697148 magnetization       0.4937376

 Broyden mixing:
  rms(total) = 0.32263E-05    rms(broyden)= 0.32208E-05
  rms(prec ) = 0.42716E-05
  weight for this iteration     100.00

 eigenvalues of (default mixing * dielectric matrix)
  average eigenvalue GAMMA=   1.9257
  8.5757  5.5428  3.3890  2.5786  2.3082  1.9917  1.6953  1.0768  1.0768  0.9559
  0.8022  0.7859  0.7112  0.6999  0.6504  0.6276  0.6163  0.5777

 Free energy of the ion-electron system (eV)
  ---------------------------------------------------
  alpha Z        PSCENC =         0.02383034
  Ewald energy   TEWEN  =       267.20600726
  -1/2 Hartree   DENC   =     -1005.40131408
  -exchange  EXHF       =         0.00000000
  -V(xc)+E(xc)   XCENC  =        54.46936625
  PAW double counting   =       531.58526723     -535.22048303
  entropy T*S    EENTRO =         0.00000000
  eigenvalues    EBANDS =      -187.64056986
  atomic energy  EATOM  =       865.82426828
  ---------------------------------------------------
  free energy    TOTEN  =        -9.15362762 eV

  energy without entropy =       -9.15362762  energy(sigma->0) =       -9.15362762


--------------------------------------------------------------------------------------------------------




----------------------------------------- Iteration    1(  29)  ---------------------------------------


    POTLOK:  cpu time   47.21: real time   47.22
    SETDIJ:  cpu time    0.07: real time    0.07
    EDDIAG:  cpu time    1.73: real time    1.73
  RMM-DIIS:  cpu time    3.83: real time    3.83
    ORTHCH:  cpu time    0.05: real time    0.05
       DOS:  cpu time    0.00: real time    0.00
    CHARGE:  cpu time    3.08: real time    3.08
    MIXING:  cpu time    1.21: real time    1.21
    --------------------------------------------
      LOOP:  cpu time   57.18: real time   57.19

 eigenvalue-minimisations  :    29
 total energy-change (2. order) :-0.1038938E-05  (-0.8269700E-08)
 number of electron      12.0000124 magnetization       2.0000082
 augmentation part        1.0697146 magnetization       0.4937376

 Broyden mixing:
  rms(total) = 0.18571E-05    rms(broyden)= 0.18540E-05
  rms(prec ) = 0.26175E-05
  weight for this iteration     100.00

 eigenvalues of (default mixing * dielectric matrix)
  average eigenvalue GAMMA=   1.9185
  8.6680  5.7589  3.5904  2.5823  2.2366  2.1955  1.5807  1.5807  1.0109  1.0109
  0.8855  0.7473  0.7473  0.6984  0.6984  0.6444  0.6258  0.6129  0.5769

 Free energy of the ion-electron system (eV)
  ---------------------------------------------------
  alpha Z        PSCENC =         0.02383034
  Ewald energy   TEWEN  =       267.20600726
  -1/2 Hartree   DENC   =     -1005.40135087
  -exchange  EXHF       =         0.00000000
  -V(xc)+E(xc)   XCENC  =        54.46935679
  PAW double counting   =       531.58504601     -535.22025645
  entropy T*S    EENTRO =         0.00000000
  eigenvalues    EBANDS =      -187.64053001
  atomic energy  EATOM  =       865.82426828
  ---------------------------------------------------
  free energy    TOTEN  =        -9.15362866 eV

  energy without entropy =       -9.15362866  energy(sigma->0) =       -9.15362866


--------------------------------------------------------------------------------------------------------




----------------------------------------- Iteration    1(  30)  ---------------------------------------


    POTLOK:  cpu time   47.00: real time   47.01
    SETDIJ:  cpu time    0.07: real time    0.07
    EDDIAG:  cpu time    1.74: real time    1.74
  RMM-DIIS:  cpu time    3.74: real time    3.74
    ORTHCH:  cpu time    0.05: real time    0.05
       DOS:  cpu time    0.00: real time    0.00
    --------------------------------------------
      LOOP:  cpu time   52.59: real time   52.61

 eigenvalue-minimisations  :    27
 total energy-change (2. order) :-0.6592272E-06  (-0.5152909E-08)
 number of electron      12.0000124 magnetization       2.0000082
 augmentation part        1.0697146 magnetization       0.4937376

 Free energy of the ion-electron system (eV)
  ---------------------------------------------------
  alpha Z        PSCENC =         0.02383034
  Ewald energy   TEWEN  =       267.20600726
  -1/2 Hartree   DENC   =     -1005.40134323
  -exchange  EXHF       =         0.00000000
  -V(xc)+E(xc)   XCENC  =        54.46935208
  PAW double counting   =       531.58509169     -535.22030081
  entropy T*S    EENTRO =         0.00000000
  eigenvalues    EBANDS =      -187.64053492
  atomic energy  EATOM  =       865.82426828
  ---------------------------------------------------
  free energy    TOTEN  =        -9.15362932 eV

  energy without entropy =       -9.15362932  energy(sigma->0) =       -9.15362932


--------------------------------------------------------------------------------------------------------




 average (electrostatic) potential at core
  the test charge radii are     0.7215
  (the norm of the test charge is              1.0000)
       1 -84.6818       2 -84.6820



 E-fermi :  -8.0819     XC(G=0):  -0.0249     alpha+bet : -0.0065


 spin component 1

 k-point   1 :       0.0000    0.0000    0.0000
  band No.  band energies     occupation 
      1     -29.8054      1.00000
      2     -22.0151      1.00000
      3     -13.2081      1.00000
      4     -12.2668      1.00000
      5     -12.2668      1.00000
      6      -8.1326      1.00000
      7      -8.1326      1.00000
      8      -1.9825      0.00000
      9      -0.1751      0.00000
     10       0.0163      0.00000
     11       0.1519      0.00000

 spin component 2

 k-point   1 :       0.0000    0.0000    0.0000
  band No.  band energies     occupation 
      1     -28.4342      1.00000
      2     -20.2221      1.00000
      3     -12.2588      1.00000
      4     -10.4490      1.00000
      5     -10.4490      1.00000
      6      -5.9644      0.00000
      7      -5.9644      0.00000
      8      -0.9747      0.00000
      9      -0.0987      0.00000
     10       0.0387      0.00000
     11       0.1753      0.00000


--------------------------------------------------------------------------------------------------------


 soft charge-density along one line, spin component            1
         0         1         2         3         4         5         6         7         8         9
 total charge-density along one line

 soft charge-density along one line, spin component            2
         0         1         2         3         4         5         6         7         8         9
 total charge-density along one line

 pseudopotential strength for first ion, spin component:            1
 14.905  -0.624   0.000  -0.081   0.000   0.000   0.003   0.000
 -0.624   0.149   0.000   0.011   0.000   0.000  -0.002   0.000
  0.000   0.000 -11.463   0.000   0.000   0.560   0.000   0.000
 -0.081   0.011   0.000 -11.442   0.000   0.000   0.542   0.000
  0.000   0.000   0.000   0.000 -11.463   0.000   0.000   0.560
  0.000   0.000   0.560   0.000   0.000  -0.011   0.000   0.000
  0.003  -0.002   0.000   0.542   0.000   0.000  -0.006   0.000
  0.000   0.000   0.000   0.000   0.560   0.000   0.000  -0.011
 pseudopotential strength for first ion, spin component:            2
 14.371  -0.547   0.000  -0.080   0.000   0.000   0.003   0.000
 -0.547   0.137   0.000   0.010   0.000   0.000  -0.002   0.000
  0.000   0.000 -10.869   0.000   0.000   0.406   0.000   0.000
 -0.080   0.010   0.000 -11.193   0.000   0.000   0.481   0.000
  0.000   0.000   0.000   0.000 -10.869   0.000   0.000   0.406
  0.000   0.000   0.406   0.000   0.000   0.038   0.000   0.000
  0.003  -0.002   0.000   0.481   0.000   0.000   0.015   0.000
  0.000   0.000   0.000   0.000   0.406   0.000   0.000   0.038
 total augmentation occupancy for first ion, spin component:            1
  1.988   0.061   0.000  -0.187   0.000   0.000   0.003   0.000
  0.061   0.031   0.000   0.130   0.000   0.000   0.035   0.000
  0.000   0.000   1.505   0.000   0.000   0.038   0.000   0.000
 -0.187   0.130   0.000   1.168   0.000   0.000   0.176   0.000
  0.000   0.000   0.000   0.000   1.505   0.000   0.000   0.038
  0.000   0.000   0.038   0.000   0.000   0.008   0.000   0.000
  0.003   0.035   0.000   0.176   0.000   0.000   0.043   0.000
  0.000   0.000   0.000   0.000   0.038   0.000   0.000   0.008
 total augmentation occupancy for first ion, spin component:            2
  0.023  -0.025   0.000   0.006   0.000   0.000  -0.003   0.000
 -0.025  -0.002   0.000   0.000   0.000   0.000  -0.001   0.000
  0.000   0.000   0.578   0.000   0.000  -0.046   0.000   0.000
  0.006   0.000   0.000   0.003   0.000   0.000  -0.008   0.000
  0.000   0.000   0.000   0.000   0.578   0.000   0.000  -0.046
  0.000   0.000  -0.046   0.000   0.000   0.000   0.000   0.000
 -0.003  -0.001   0.000  -0.008   0.000   0.000  -0.002   0.000
  0.000   0.000   0.000   0.000  -0.046   0.000   0.000   0.000


------------------------ aborting loop because EDIFF is reached ----------------------------------------


    CHARGE:  cpu time    3.26: real time    3.26
    FORLOC:  cpu time    0.19: real time    0.19
    FORNL :  cpu time    2.71: real time    2.71
    STRESS:  cpu time    8.52: real time    8.52
    FORHAR:  cpu time    1.86: real time    1.86
    MIXING:  cpu time    1.30: real time    1.30
    FORVDW:  cpu time    0.00: real time    0.00

  FORCE on cell =-STRESS in cart. coord.  units (eV):
  Direction    XX          YY          ZZ          XY          YZ          ZX
  --------------------------------------------------------------------------------------
  Alpha Z     0.02383     0.02383     0.02383
  Ewald     -32.60541   -32.60541   332.41693     0.00000     0.00000     0.00000
  Hartree   271.78502   271.78502   461.83137     0.00000     0.00000     0.00000
  E(xc)     -58.24104   -58.24104   -57.29040     0.00000     0.00000     0.00000
  Local    -421.72058  -421.72058  -943.17666     0.00000     0.00000     0.00000
  n-local   -41.69369   -41.69369   -40.88531     0.00000     0.00000     0.00000
  augment    13.20072    13.20072    10.43839     0.00000     0.00000     0.00000
  Kinetic   267.65165   267.65165   226.17612     0.00000     0.00000     0.00000
  Fock        0.00000     0.00000     0.00000     0.00000     0.00000     0.00000
  -------------------------------------------------------------------------------------
  Total      -1.59949    -1.59949   -10.46573     0.00000     0.00000     0.00000
  in kB      -0.11080    -0.11080    -0.72501     0.00000     0.00000     0.00000
  external pressure =       -0.32 kB  Pullay stress =        0.00 kB


 VOLUME and BASIS-vectors are now :
 -----------------------------------------------------------------------------
  energy-cutoff  :      400.00
  volume of cell :    23128.00
      direct lattice vectors                 reciprocal lattice vectors
    28.000000000  0.000000000  0.000000000     0.035714286  0.000000000  0.000000000
     0.000000000 28.000000000  0.000000000     0.000000000  0.035714286  0.000000000
     0.000000000  0.000000000 29.500000000     0.000000000  0.000000000  0.033898305

  length of vectors
    28.000000000 28.000000000 29.500000000     0.035714286  0.035714286  0.033898305


 FORCES acting on ions
    electron-ion (+dipol)            ewald-force                    non-local-force                 convergence-correction
 -----------------------------------------------------------------------------------------------
   0.125E-11 0.940E-12 0.232E+03   0.239E-17 0.129E-16 -.264E+03   0.000E+00 -.207E-24 0.391E+02   -.278E-13 -.270E-13 0.711E-04
   0.126E-11 0.197E-11 -.232E+03   -.958E-17 -.166E-16 0.264E+03   0.000E+00 0.414E-24 -.391E+02   0.295E-13 0.286E-13 -.711E-04
 -----------------------------------------------------------------------------------------------
[...]
     14.00000     14.00000     14.08443         0.000000      0.000000     -0.319385
     14.00000     14.00000     15.31557         0.000000      0.000000      0.319385
 -----------------------------------------------------------------------------------
    total drift:                                0.000000      0.000000     -0.000041


--------------------------------------------------------------------------------------------------------



  FREE ENERGIE OF THE ION-ELECTRON SYSTEM (eV)
  ---------------------------------------------------
  free  energy   TOTEN  =        -9.81915586 eV

  energy  without entropy=       -9.81973565  energy(sigma->0) =       -9.81934913

 d Force = 0.1051939E-01[-0.732E-02, 0.284E-01]  d Energy = 0.1046234E-01 0.571E-04
 d Force =-0.7691048E+01[-0.783E+01,-0.755E+01]  d Ewald  =-0.7689740E+01-0.131E-02


--------------------------------------------------------------------------------------------------------


    POTLOK:  cpu time   47.34: real time   47.35


--------------------------------------------------------------------------------------------------------


 stress matrix after NEB project (eV)
     -1.59052      0.00000      0.00000
      0.00000     -1.59052      0.00000
      0.00000      0.00000     -0.79342
  FORCES: max atom, RMS     0.319385    0.319385
  FORCE total and by dimension    0.451678    0.319385
  Stress total and by dimension    2.385170    1.590521
 Quasi-Newton relaxation of ions (Broydens 2nd method)
  g(Force)  = 0.394E-02   g(Stress)= 0.000E+00

 retain information from N=  1 steps
 eigenvalues of (default step * inverse Hessian matrix)
  average eigenvalue of G=   0.3812
 eigenvalue spectrum of G is  0.3812


--------------------------------------------------------------------------------------------------------


    WAVPRE:  cpu time    0.37: real time    0.37
 FEWALD executed in parallel
    FEWALD:  cpu time    0.01: real time    0.01

 real space projection operators:
  total allocation   :        136.63 KBytes
  max/ min on nodes  :         19.50         15.75

    ORTHCH:  cpu time    0.86: real time    0.86
     LOOP+:  cpu time  866.75: real time  867.12


----------------------------------------- Iteration    6(   1)  ---------------------------------------


    POTLOK:  cpu time   47.22: real time   47.23
    SETDIJ:  cpu time    0.07: real time    0.07
     EDDAV:  cpu time    8.21: real time    8.21
       DOS:  cpu time    0.00: real time    0.00
    CHARGE:  cpu time    3.15: real time    3.15
    MIXING:  cpu time    0.29: real time    0.30
    --------------------------------------------
      LOOP:  cpu time   58.94: real time   58.96

 eigenvalue-minimisations  :    47
 total energy-change (2. order) :-0.1223276E-02  (-0.6870254E-02)
 number of electron      12.0000097 magnetization       2.0000085
 augmentation part        1.1480303 magnetization       0.4942812

  free energy =  -0.982037912567E+01  energy without entropy=  -0.982037912567E+01


--------------------------------------------------------------------------------------------------------




----------------------------------------- Iteration    6(   2)  ---------------------------------------


    POTLOK:  cpu time   47.15: real time   47.16
    SETDIJ:  cpu time    0.07: real time    0.07
    EDDIAG:  cpu time    1.72: real time    1.72
  RMM-DIIS:  cpu time    5.39: real time    5.39
    ORTHCH:  cpu time    0.05: real time    0.05
       DOS:  cpu time    0.00: real time    0.00
    CHARGE:  cpu time    3.20: real time    3.20
    MIXING:  cpu time    0.33: real time    0.33
    --------------------------------------------
      LOOP:  cpu time   57.91: real time   57.92

 eigenvalue-minimisations  :    44
 total energy-change (2. order) :-0.2175852E-04  (-0.8872147E-04)
 number of electron      12.0000097 magnetization       2.0000085
 augmentation part        1.1479499 magnetization       0.4944120

 eigenvalues of (default mixing * dielectric matrix)
  average eigenvalue GAMMA=   0.7353
  0.7353

  free energy =  -0.982040088419E+01  energy without entropy=  -0.982040088419E+01


--------------------------------------------------------------------------------------------------------




----------------------------------------- Iteration    6(   3)  ---------------------------------------


    POTLOK:  cpu time   47.15: real time   47.16
    SETDIJ:  cpu time    0.06: real time    0.06
    EDDIAG:  cpu time    1.70: real time    1.70
  RMM-DIIS:  cpu time    5.20: real time    5.21
    ORTHCH:  cpu time    0.05: real time    0.05
       DOS:  cpu time    0.00: real time    0.00
    CHARGE:  cpu time    3.04: real time    3.04
    MIXING:  cpu time    0.34: real time    0.34
    --------------------------------------------
      LOOP:  cpu time   57.54: real time   57.56

 eigenvalue-minimisations  :    44
 total energy-change (2. order) : 0.8367140E-05  (-0.5696520E-05)
 number of electron      12.0000097 magnetization       2.0000085
 augmentation part        1.1481549 magnetization       0.4945292

 eigenvalues of (default mixing * dielectric matrix)
  average eigenvalue GAMMA=   1.1240
  0.6962  1.5517

  free energy =  -0.982039251705E+01  energy without entropy=  -0.982039251705E+01


--------------------------------------------------------------------------------------------------------




----------------------------------------- Iteration    6(   4)  ---------------------------------------


    POTLOK:  cpu time   46.97: real time   46.98
    SETDIJ:  cpu time    0.06: real time    0.06
    EDDIAG:  cpu time    1.73: real time    1.73
  RMM-DIIS:  cpu time    5.29: real time    5.29
    ORTHCH:  cpu time    0.05: real time    0.05
       DOS:  cpu time    0.00: real time    0.00
    CHARGE:  cpu time    3.17: real time    3.17
    MIXING:  cpu time    0.37: real time    0.37
    --------------------------------------------
      LOOP:  cpu time   57.64: real time   57.67

 eigenvalue-minimisations  :    44
 total energy-change (2. order) :-0.1282467E-04  (-0.3323209E-05)
 number of electron      12.0000097 magnetization       2.0000085
 augmentation part        1.1483470 magnetization       0.4946072

 eigenvalues of (default mixing * dielectric matrix)
  average eigenvalue GAMMA=   1.1107
  1.5503  1.1015  0.6802

  free energy =  -0.982040534171E+01  energy without entropy=  -0.982040534171E+01


--------------------------------------------------------------------------------------------------------




----------------------------------------- Iteration    6(   5)  ---------------------------------------


    POTLOK:  cpu time   47.23: real time   47.24
    SETDIJ:  cpu time    0.07: real time    0.07
    EDDIAG:  cpu time    1.72: real time    1.72
  RMM-DIIS:  cpu time    4.42: real time    4.43
    ORTHCH:  cpu time    0.05: real time    0.05
       DOS:  cpu time    0.00: real time    0.00
    CHARGE:  cpu time    3.25: real time    3.25
    MIXING:  cpu time    0.40: real time    0.40
    --------------------------------------------
      LOOP:  cpu time   57.14: real time   57.16

 eigenvalue-minimisations  :    35
 total energy-change (2. order) :-0.6226372E-05  (-0.2246435E-06)
 number of electron      12.0000097 magnetization       2.0000085
 augmentation part        1.1483319 magnetization       0.4946124

 eigenvalues of (default mixing * dielectric matrix)
  average eigenvalue GAMMA=   1.2513
  1.7745  1.7745  0.6643  0.7919

  free energy =  -0.982041156808E+01  energy without entropy=  -0.982041156808E+01


--------------------------------------------------------------------------------------------------------




----------------------------------------- Iteration    6(   6)  ---------------------------------------


    POTLOK:  cpu time   47.10: real time   47.11
    SETDIJ:  cpu time    0.06: real time    0.06
    EDDIAG:  cpu time    1.73: real time    1.73
  RMM-DIIS:  cpu time    4.13: real time    4.13
    ORTHCH:  cpu time    0.05: real time    0.05
       DOS:  cpu time    0.00: real time    0.00
    CHARGE:  cpu time    3.19: real time    3.19
    MIXING:  cpu time    0.42: real time    0.42
    --------------------------------------------
      LOOP:  cpu time   56.69: real time   56.72

 eigenvalue-minimisations  :    32
 total energy-change (2. order) :-0.3123067E-05  (-0.1103592E-06)
 number of electron      12.0000097 magnetization       2.0000085
 augmentation part        1.1483175 magnetization       0.4946081

 eigenvalues of (default mixing * dielectric matrix)
  average eigenvalue GAMMA=   1.2631
  2.4804  1.4648  1.0159  0.7012  0.6530

  free energy =  -0.982041469115E+01  energy without entropy=  -0.982041469115E+01


--------------------------------------------------------------------------------------------------------




----------------------------------------- Iteration    6(   7)  ---------------------------------------


    POTLOK:  cpu time   47.26: real time   47.27
    SETDIJ:  cpu time    0.06: real time    0.06
    EDDIAG:  cpu time    1.69: real time    1.69
  RMM-DIIS:  cpu time    3.81: real time    3.81
    ORTHCH:  cpu time    0.05: real time    0.05
       DOS:  cpu time    0.00: real time    0.00
    --------------------------------------------
      LOOP:  cpu time   52.87: real time   52.88

 eigenvalue-minimisations  :    30
 total energy-change (2. order) :-0.8565030E-07  (-0.2823179E-07)
 number of electron      12.0000097 magnetization       2.0000085
 augmentation part        1.1483175 magnetization       0.4946081

  free energy =  -0.982041477680E+01  energy without entropy=  -0.982041477680E+01


--------------------------------------------------------------------------------------------------------




 average (electrostatic) potential at core
  the test charge radii are     0.7215
  (the norm of the test charge is              1.0000)
       1 -84.7468       2 -84.7468



 E-fermi :  -7.0414     XC(G=0):  -0.0271     alpha+bet : -0.0065


 spin component 1

 k-point   1 :       0.0000    0.0000    0.0000
  band No.  band energies     occupation 
      1     -32.6139      1.00000
      2     -20.7852      1.00000
      3     -13.6189      1.00000
      4     -13.3970      1.00000
      5     -13.3970      1.00000
      6      -7.1103      1.00000
      7      -7.1103      1.00000
      8      -0.1692      0.00000
      9       0.0129      0.00000
     10       0.1368      0.00000
     11       0.1743      0.00000

 spin component 2

 k-point   1 :       0.0000    0.0000    0.0000
  band No.  band energies     occupation 
      1     -31.3346      1.00000
      2     -18.9994      1.00000
      3     -12.5774      1.00000
      4     -11.5897      1.00000
      5     -11.5897      1.00000
      6      -4.9086      0.00000
      7      -4.9086      0.00000
      8      -0.0553      0.00000
      9       0.0462      0.00000
     10       0.1665      0.00000
     11       0.1888      0.00000


--------------------------------------------------------------------------------------------------------


 soft charge-density along one line, spin component            1
         0         1         2         3         4         5         6         7         8         9
 total charge-density along one line

 soft charge-density along one line, spin component            2
         0         1         2         3         4         5         6         7         8         9
 total charge-density along one line

 pseudopotential strength for first ion, spin component:            1
 14.912  -0.623   0.000  -0.129   0.000   0.000   0.005   0.000
 -0.623   0.149   0.000   0.015   0.000   0.000  -0.003   0.000
  0.000   0.000 -11.447   0.000   0.000   0.551   0.000   0.000
 -0.129   0.015   0.000 -11.466   0.000   0.000   0.537   0.000
  0.000   0.000   0.000   0.000 -11.447   0.000   0.000   0.551
  0.000   0.000   0.551   0.000   0.000  -0.008   0.000   0.000
  0.005  -0.003   0.000   0.537   0.000   0.000  -0.004   0.000
  0.000   0.000   0.000   0.000   0.551   0.000   0.000  -0.008
 pseudopotential strength for first ion, spin component:            2
 14.378  -0.546   0.000  -0.130   0.000   0.000   0.006   0.000
 -0.546   0.137   0.000   0.015   0.000   0.000  -0.003   0.000
  0.000   0.000 -10.848   0.000   0.000   0.395   0.000   0.000
 -0.130   0.015   0.000 -11.222   0.000   0.000   0.476   0.000
  0.000   0.000   0.000   0.000 -10.848   0.000   0.000   0.395
  0.000   0.000   0.395   0.000   0.000   0.042   0.000   0.000
  0.006  -0.003   0.000   0.476   0.000   0.000   0.017   0.000
  0.000   0.000   0.000   0.000   0.395   0.000   0.000   0.042
 total augmentation occupancy for first ion, spin component:            1
  1.957   0.101   0.000  -0.197   0.000   0.000   0.034   0.000
  0.101   0.058   0.000   0.186   0.000   0.000   0.066   0.000
  0.000   0.000   1.527   0.000   0.000   0.054   0.000   0.000
 -0.197   0.186   0.000   1.332   0.000   0.000   0.260   0.000
  0.000   0.000   0.000   0.000   1.527   0.000   0.000   0.054
  0.000   0.000   0.054   0.000   0.000   0.016   0.000   0.000
  0.034   0.066   0.000   0.260   0.000   0.000   0.080   0.000
  0.000   0.000   0.000   0.000   0.054   0.000   0.000   0.016
 total augmentation occupancy for first ion, spin component:            2
  0.024  -0.026   0.000   0.003   0.000   0.000  -0.004   0.000
 -0.026  -0.003   0.000  -0.001   0.000   0.000  -0.002   0.000
  0.000   0.000   0.572   0.000   0.000  -0.062   0.000   0.000
  0.003  -0.001   0.000   0.001   0.000   0.000  -0.008   0.000
  0.000   0.000   0.000   0.000   0.572   0.000   0.000  -0.062
  0.000   0.000  -0.062   0.000   0.000   0.001   0.000   0.000
 -0.004  -0.002   0.000  -0.008   0.000   0.000  -0.003   0.000
  0.000   0.000   0.000   0.000  -0.062   0.000   0.000   0.001


------------------------ aborting loop because EDIFF is reached ----------------------------------------


    CHARGE:  cpu time    3.14: real time    3.14
    FORLOC:  cpu time    0.18: real time    0.18
    FORNL :  cpu time    2.63: real time    2.63
    STRESS:  cpu time    8.31: real time    8.32
    FORHAR:  cpu time    1.73: real time    1.73
    MIXING:  cpu time    0.43: real time    0.43
    FORVDW:  cpu time    0.00: real time    0.00

  FORCE on cell =-STRESS in cart. coord.  units (eV):
  Direction    XX          YY          ZZ          XY          YZ          ZX
  --------------------------------------------------------------------------------------
  Alpha Z     0.02383     0.02383     0.02383
  Ewald     -32.59271   -32.59271   381.56096     0.00000     0.00000     0.00000
  Hartree   286.58171   286.58171   476.44000     0.00000     0.00000     0.00000
  E(xc)     -59.27967   -59.27967   -58.08675     0.00000     0.00000     0.00000
  Local    -438.90187  -438.90187  -998.49132     0.00000     0.00000     0.00000
  n-local   -42.34125   -42.34125   -45.85092     0.00000     0.00000     0.00000
  augment    13.78058    13.78058    11.13830     0.00000     0.00000     0.00000
  Kinetic   271.13703   271.13703   232.06064     0.00000     0.00000     0.00000
  Fock        0.00000     0.00000     0.00000     0.00000     0.00000     0.00000
  -------------------------------------------------------------------------------------
  Total      -1.59237    -1.59237    -1.20526     0.00000     0.00000     0.00000
  in kB      -0.11031    -0.11031    -0.08349     0.00000     0.00000     0.00000
  external pressure =       -0.10 kB  Pullay stress =        0.00 kB


 VOLUME and BASIS-vectors are now :
 -----------------------------------------------------------------------------
  energy-cutoff  :      400.00
  volume of cell :    23128.00
      direct lattice vectors                 reciprocal lattice vectors
    28.000000000  0.000000000  0.000000000     0.035714286  0.000000000  0.000000000
     0.000000000 28.000000000  0.000000000     0.000000000  0.035714286  0.000000000
     0.000000000  0.000000000 29.500000000     0.000000000  0.000000000  0.033898305

  length of vectors
    28.000000000 28.000000000 29.500000000     0.035714286  0.035714286  0.033898305


 FORCES acting on ions
    electron-ion (+dipol)            ewald-force                    non-local-force                 convergence-correction
 -----------------------------------------------------------------------------------------------
   0.132E-11 0.264E-11 0.287E+03   0.136E-17 0.139E-16 -.339E+03   0.000E+00 0.000E+00 0.523E+02   -.284E-13 -.176E-12 0.112E-03
   0.137E-11 0.437E-11 -.287E+03   -.855E-17 -.177E-16 0.339E+03   0.000E+00 0.000E+00 -.523E+02   0.234E-13 -.163E-12 -.112E-03
 -----------------------------------------------------------------------------------------------
   0.269E-11 0.701E-11 -.380E-04   -.720E-17 -.375E-17 0.000E+00   0.000E+00 0.000E+00 0.213E-13   -.495E-14 -.339E-12 -.135E-06


 POSITION                                       TOTAL-FORCE (eV/Angst)
 -----------------------------------------------------------------------------------
     14.00000     14.00000     14.08208         0.000000      0.000000      0.022419
     14.00000     14.00000     15.31792         0.000000      0.000000     -0.022419
 -----------------------------------------------------------------------------------
    total drift:                                0.000000      0.000000     -0.000038


--------------------------------------------------------------------------------------------------------



  FREE ENERGIE OF THE ION-ELECTRON SYSTEM (eV)
  ---------------------------------------------------
  free  energy   TOTEN  =        -9.82041478 eV

  energy  without entropy=       -9.82041478  energy(sigma->0) =       -9.82041478

 d Force = 0.6976897E-03[-0.105E-03, 0.150E-02]  d Energy = 0.1258913E-02-0.561E-03
 d Force = 0.1600500E+01[ 0.159E+01, 0.161E+01]  d Ewald  = 0.1600488E+01 0.118E-04


--------------------------------------------------------------------------------------------------------


    POTLOK:  cpu time   47.17: real time   47.18


--------------------------------------------------------------------------------------------------------


 stress matrix after NEB project (eV)
     -1.59237      0.00000      0.00000
      0.00000     -1.59237      0.00000
      0.00000      0.00000     -1.20526
  FORCES: max atom, RMS     0.022419    0.022419
  FORCE total and by dimension    0.031706    0.022419
  Stress total and by dimension    2.554196    1.592367
 Quasi-Newton relaxation of ions (Broydens 2nd method)
  g(Force)  = 0.194E-04   g(Stress)= 0.000E+00

 retain information from N=  1 steps
 eigenvalues of (default step * inverse Hessian matrix)
  average eigenvalue of G=   0.3562
 eigenvalue spectrum of G is  0.3562


--------------------------------------------------------------------------------------------------------


  
 reached required accuracy - stopping structural energy minimisation
     LOOP+:  cpu time  462.39: real time  462.60
    4ORBIT:  cpu time    0.00: real time    0.00

 total amount of memory used by VASP on root node   388404. kBytes
========================================================================

   base      :      30000. kBytes
   nonlr-proj:         59. kBytes
   fftplans  :     106425. kBytes
   grid      :     233421. kBytes
   one-center:          6. kBytes
   wavefun   :      18493. kBytes

  
  
 General timing and accounting informations for this job:
 ========================================================
  
                  Total CPU time used (sec):     6171.189
                            User time (sec):     6170.598
                          System time (sec):        0.591
                         Elapsed time (sec):     6176.720
  
                   Maximum memory used (kb):           0.
                   Average memory used (kb):           0.
  
                          Minor page faults:       200689
                          Major page faults:           43
                 Voluntary context switches:         1519
