unknown system                          
            1
    28.000000    0.000000    0.000000
     0.000000   28.000000    0.000000
     0.000000    0.000000   29.500000
   O 
   2
Direct configuration=     1
   0.50000000  0.50000000  0.47457627
   0.50000000  0.50000000  0.52203390
Direct configuration=     2
   0.50000000  0.50000000  0.47896804
   0.50000000  0.50000000  0.51764213
Direct configuration=     3
   0.50000000  0.50000000  0.47637835
   0.50000000  0.50000000  0.52023182
Direct configuration=     4
   0.50000000  0.50000000  0.47705008
   0.50000000  0.50000000  0.51956009
Direct configuration=     5
   0.50000000  0.50000000  0.47743836
   0.50000000  0.50000000  0.51917181
Direct configuration=     6
   0.50000000  0.50000000  0.47735872
   0.50000000  0.50000000  0.51925145
